Title Card Required                                                     
Freq      RB3LYP                                                      3-21G               
Number of atoms                            I               12
Info1-9                                    I   N=           9
          31          31        1002           0           0         100
           6          18        -502
Full Title                                 C   N=           2
Title Card Required     
Route                                      C   N=           4
# opt freq b3lyp/3-21g geom=connectivity        
Charge                                     I                0
Multiplicity                               I                1
Number of electrons                        I               48
Number of alpha electrons                  I               24
Number of beta electrons                   I               24
Number of basis functions                  I               73
Number of independent functions            I               73
Number of point charges in /Mol/           I                0
Number of translation vectors              I                0
Atomic numbers                             I   N=          12
           6           1           1           6           6           1
           6           1           6           1           6           7
Nuclear charges                            R   N=          12
  6.00000000E+00  1.00000000E+00  1.00000000E+00  6.00000000E+00  6.00000000E+00
  1.00000000E+00  6.00000000E+00  1.00000000E+00  6.00000000E+00  1.00000000E+00
  6.00000000E+00  7.00000000E+00
Current cartesian coordinates              R   N=          36
 -9.22418724E-01 -2.24120035E+00  1.78989511E-05 -5.63089707E-01 -3.40425032E+00
 -1.68085946E+00 -5.63111459E-01 -3.40421483E+00  1.68092573E+00  7.30689419E-01
  1.26899716E-01 -5.47426187E-06 -7.86270878E-01  2.20304875E+00  1.04143798E-05
 -1.48228299E-01  4.14202956E+00  1.72687450E-05 -3.56742077E+00 -1.14651983E+00
 -1.90977394E-05 -5.25447665E+00 -2.29520878E+00 -3.17727995E-05 -3.44438133E+00
  1.40569632E+00  2.49218424E-07 -5.02288142E+00  2.69942181E+00 -1.22917317E-06
  3.38812399E+00  5.70819508E-02 -6.69062854E-06  5.59455104E+00 -2.39738254E-02
 -4.90542879E-06
Number of symbols in /Mol/                 I                0
Int Atom Types                             I   N=          12
           0           0           0           0           0           0
           0           0           0           0           0           0
Force Field                                I                0
Atom Types                                 C   N=          12
                                                            
                                                            
                        
MM charges                                 R   N=          12
  0.00000000E+00  0.00000000E+00  0.00000000E+00  0.00000000E+00  0.00000000E+00
  0.00000000E+00  0.00000000E+00  0.00000000E+00  0.00000000E+00  0.00000000E+00
  0.00000000E+00  0.00000000E+00
Integer atomic weights                     I   N=          12
          12           1           1          12          12           1
          12           1          12           1          12          14
Real atomic weights                        R   N=          12
  1.20000000E+01  1.00782504E+00  1.00782504E+00  1.20000000E+01  1.20000000E+01
  1.00782504E+00  1.20000000E+01  1.00782504E+00  1.20000000E+01  1.00782504E+00
  1.20000000E+01  1.40030740E+01
Atom fragment info                         I   N=          12
           0           0           0           0           0           0
           0           0           0           0           0           0
Atom residue num                           I   N=          12
           0           0           0           0           0           0
           0           0           0           0           0           0
Nuclear spins                              I   N=          12
           0           1           1           0           0           1
           0           1           0           1           0           2
Nuclear ZEff                               R   N=          12
 -3.60000000E+00 -1.00000000E+00 -1.00000000E+00 -3.60000000E+00 -3.60000000E+00
 -1.00000000E+00 -3.60000000E+00 -1.00000000E+00 -3.60000000E+00 -1.00000000E+00
 -3.60000000E+00 -4.55000000E+00
Nuclear ZNuc                               R   N=          12
  6.00000000E+00  1.00000000E+00  1.00000000E+00  6.00000000E+00  6.00000000E+00
  1.00000000E+00  6.00000000E+00  1.00000000E+00  6.00000000E+00  1.00000000E+00
  6.00000000E+00  7.00000000E+00
Nuclear QMom                               R   N=          12
  0.00000000E+00  0.00000000E+00  0.00000000E+00  0.00000000E+00  0.00000000E+00
  0.00000000E+00  0.00000000E+00  0.00000000E+00  0.00000000E+00  0.00000000E+00
  0.00000000E+00  2.04400000E+00
Nuclear GFac                               R   N=          12
  0.00000000E+00  2.79284600E+00  2.79284600E+00  0.00000000E+00  0.00000000E+00
  2.79284600E+00  0.00000000E+00  2.79284600E+00  0.00000000E+00  2.79284600E+00
  0.00000000E+00  4.03761000E-01
MicOpt                                     I   N=          12
          -1          -1          -1          -1          -1          -1
          -1          -1          -1          -1          -1          -1
Number of residues                         I                0
Number of secondary structures             I                0
Redundant internal dimensions              I   N=           4
          56          12          20          24
Redundant internal coordinate indices      I   N=         224
           1           2           0           0           1           3
           0           0           1           4           0           0
           1           7           0           0           4           5
           0           0           4          11           0           0
           5           6           0           0           5           9
           0           0           7           8           0           0
           7           9           0           0           9          10
           0           0          11          12           0           0
           2           1           3           0           2           1
           4           0           2           1           7           0
           3           1           4           0           3           1
           7           0           4           1           7           0
           1           4           5           0           1           4
          11           0           5           4          11           0
           4           5           6           0           4           5
           9           0           6           5           9           0
           1           7           8           0           1           7
           9           0           8           7           9           0
           5           9           7           0           5           9
          10           0           7           9          10           0
           4          11          12         -61           4          11
          12         -62           2           1           4           5
           2           1           4          11           3           1
           4           5           3           1           4          11
           7           1           4           5           7           1
           4          11           2           1           7           8
           2           1           7           9           3           1
           7           8           3           1           7           9
           4           1           7           8           4           1
           7           9           1           4           5           6
           1           4           5           9          11           4
           5           6          11           4           5           9
           4           5           9           7           4           5
           9          10           6           5           9           7
           6           5           9          10           1           7
           9           5           1           7           9          10
           8           7           9           5           8           7
           9          10
Redundant internal coordinates             R   N=          56
  2.07536775E+00  2.07536877E+00  2.88802085E+00  2.86257947E+00  2.57129604E+00
  2.65835156E+00  2.04126062E+00  2.77512560E+00  2.04099090E+00  2.55518022E+00
  2.04092826E+00  2.20791540E+00  1.88804840E+00  1.93949985E+00  1.95441110E+00
  1.93950511E+00  1.95441598E+00  1.78782453E+00  1.90115217E+00  2.15396166E+00
  2.22807147E+00  2.19268372E+00  1.91037596E+00  2.18012563E+00  2.15140822E+00
  1.91502847E+00  2.21674862E+00  1.91039683E+00  2.16359028E+00  2.20919819E+00
  3.15204578E+00  3.14159084E+00  2.08989220E+00 -1.05171455E+00 -2.08985176E+00
  1.05172679E+00  2.43270573E-05 -3.14158243E+00  1.06214910E+00 -2.07945728E+00
 -1.06216073E+00  2.07941819E+00  3.14158257E+00 -2.38143308E-05  3.14158228E+00
 -1.67425007E-05  4.48851569E-06  3.14159078E+00  1.11121107E-06 -3.14158640E+00
  3.14158746E+00 -5.37269007E-08  1.52343222E-05 -3.14158273E+00 -3.14159179E+00
 -4.45133377E-06
ZRed-IntVec                                I   N=          56
           0           0           0           0           0           0
           0           0           0           0           0           0
           0           0           0           0           0           0
           0           0           0           0           0           0
           0           0           0           0           0           0
           0           0           0           0           0           0
           0           0           0           0           0           0
           0           0           0           0           0           0
           0           0           0           0           0           0
           0           0
ZRed-FPVec                                 R   N=          56
  0.00000000E+00  0.00000000E+00  0.00000000E+00  0.00000000E+00  0.00000000E+00
  0.00000000E+00  0.00000000E+00  0.00000000E+00  0.00000000E+00  0.00000000E+00
  0.00000000E+00  0.00000000E+00  0.00000000E+00  0.00000000E+00  0.00000000E+00
  0.00000000E+00  0.00000000E+00  0.00000000E+00  0.00000000E+00  0.00000000E+00
  0.00000000E+00  0.00000000E+00  0.00000000E+00  0.00000000E+00  0.00000000E+00
  0.00000000E+00  0.00000000E+00  0.00000000E+00  0.00000000E+00  0.00000000E+00
  0.00000000E+00  0.00000000E+00  0.00000000E+00  0.00000000E+00  0.00000000E+00
  0.00000000E+00  0.00000000E+00  0.00000000E+00  0.00000000E+00  0.00000000E+00
  0.00000000E+00  0.00000000E+00  0.00000000E+00  0.00000000E+00  0.00000000E+00
  0.00000000E+00  0.00000000E+00  0.00000000E+00  0.00000000E+00  0.00000000E+00
  0.00000000E+00  0.00000000E+00  0.00000000E+00  0.00000000E+00  0.00000000E+00
  0.00000000E+00
ZRed-Constraint1                           R   N=          56
  2.07536775E+00  2.07536877E+00  2.88802085E+00  2.86257947E+00  2.57129604E+00
  2.65835156E+00  2.04126062E+00  2.77512560E+00  2.04099090E+00  2.55518022E+00
  2.04092826E+00  2.20791540E+00  1.88804840E+00  1.93949985E+00  1.95441110E+00
  1.93950511E+00  1.95441598E+00  1.78782453E+00  1.90115217E+00  2.15396166E+00
  2.22807147E+00  2.19268372E+00  1.91037596E+00  2.18012563E+00  2.15140822E+00
  1.91502847E+00  2.21674862E+00  1.91039683E+00  2.16359028E+00  2.20919819E+00
  3.15204578E+00  3.14159084E+00  2.08989220E+00 -1.05171455E+00 -2.08985176E+00
  1.05172679E+00  2.43270618E-05 -3.14158243E+00  1.06214910E+00 -2.07945728E+00
 -1.06216073E+00  2.07941819E+00  3.14158257E+00 -2.38143354E-05  3.14158228E+00
 -1.67425007E-05  4.48851569E-06  3.14159078E+00  1.11131098E-06 -3.14158640E+00
  3.14158746E+00 -5.77119491E-08  1.52343295E-05 -3.14158273E+00 -3.14159179E+00
 -4.45135872E-06
ZRed-Constraint2                           R   N=          56
  2.11304451E+00  2.11292606E+00  2.85198020E+00  2.85196499E+00  2.56878562E+00
  2.91017823E+00  2.05799729E+00  2.78125356E+00  2.05533198E+00  2.56875696E+00
  2.05802974E+00  2.16675998E+00  1.89970604E+00  1.94172817E+00  1.94178641E+00
  1.94231672E+00  1.94228517E+00  1.79512308E+00  1.91124120E+00  2.12924039E+00
  2.24270368E+00  2.23382272E+00  1.90359749E+00  2.14576510E+00  2.12928611E+00
  1.91132229E+00  2.24257688E+00  1.90349376E+00  2.14596789E+00  2.23372365E+00
  3.14159265E+00  3.14159266E+00  2.08076409E+00 -1.06110236E+00 -2.08067913E+00
  1.06063972E+00  4.76547158E-04 -3.14138990E+00  1.06108508E+00 -2.08074201E+00
 -1.06067561E+00  2.08068262E+00  3.14133207E+00 -4.95015376E-04  3.14138345E+00
 -2.97396729E-04  8.74943426E-05  3.14159195E+00 -2.94884907E-05 -3.14150861E+00
  3.14148034E+00  1.21112619E-06  3.43546352E-04 -3.14136997E+00 -3.14150311E+00
 -3.13151404E-05
SymInf integers                            I   N=          26
           1           1           1           1           1           0
           0           0           0           0           0           0
           0           0           0           0           0           0
           0           0           0           0           0           0
           0           0
RotTr to input orientation                 R   N=          12
  1.68272990E-01  2.35199993E-01 -9.57269640E-01 -5.56834460E-01 -7.78653037E-01
 -2.89196874E-01 -8.13400015E-01  5.81704746E-01 -5.88137498E-05 -7.21191675E-01
 -4.82056068E+00 -1.21129392E+00
Number of contracted shells                I               31
Number of primitive shells                 I               57
Pure/Cartesian d shells                    I                1
Pure/Cartesian f shells                    I                0
Highest angular momentum                   I                1
Largest degree of contraction              I                3
Shell types                                I   N=          31
           0          -1          -1           0           0           0
           0           0          -1          -1           0          -1
          -1           0           0           0          -1          -1
           0           0           0          -1          -1           0
           0           0          -1          -1           0          -1
          -1
Number of primitives per shell             I   N=          31
           3           2           1           2           1           2
           1           3           2           1           3           2
           1           2           1           3           2           1
           2           1           3           2           1           2
           1           3           2           1           3           2
           1
Shell to atom map                          I   N=          31
           1           1           1           2           2           3
           3           4           4           4           5           5
           5           6           6           7           7           7
           8           8           9           9           9          10
          10          11          11          11          12          12
          12
Primitive exponents                        R   N=          57
  1.72256000E+02  2.59109000E+01  5.53335000E+00  3.66498000E+00  7.70545000E-01
  1.95857000E-01  5.44717800E+00  8.24547240E-01  1.83191580E-01  5.44717800E+00
  8.24547240E-01  1.83191580E-01  1.72256000E+02  2.59109000E+01  5.53335000E+00
  3.66498000E+00  7.70545000E-01  1.95857000E-01  1.72256000E+02  2.59109000E+01
  5.53335000E+00  3.66498000E+00  7.70545000E-01  1.95857000E-01  5.44717800E+00
  8.24547240E-01  1.83191580E-01  1.72256000E+02  2.59109000E+01  5.53335000E+00
  3.66498000E+00  7.70545000E-01  1.95857000E-01  5.44717800E+00  8.24547240E-01
  1.83191580E-01  1.72256000E+02  2.59109000E+01  5.53335000E+00  3.66498000E+00
  7.70545000E-01  1.95857000E-01  5.44717800E+00  8.24547240E-01  1.83191580E-01
  1.72256000E+02  2.59109000E+01  5.53335000E+00  3.66498000E+00  7.70545000E-01
  1.95857000E-01  2.42766000E+02  3.64851000E+01  7.81449000E+00  5.42522000E+00
  1.14915000E+00  2.83205000E-01
Contraction coefficients                   R   N=          57
  6.17669074E-02  3.58794043E-01  7.00713084E-01 -3.95895162E-01  1.21583436E+00
  1.00000000E+00  1.56284979E-01  9.04690877E-01  1.00000000E+00  1.56284979E-01
  9.04690877E-01  1.00000000E+00  6.17669074E-02  3.58794043E-01  7.00713084E-01
 -3.95895162E-01  1.21583436E+00  1.00000000E+00  6.17669074E-02  3.58794043E-01
  7.00713084E-01 -3.95895162E-01  1.21583436E+00  1.00000000E+00  1.56284979E-01
  9.04690877E-01  1.00000000E+00  6.17669074E-02  3.58794043E-01  7.00713084E-01
 -3.95895162E-01  1.21583436E+00  1.00000000E+00  1.56284979E-01  9.04690877E-01
  1.00000000E+00  6.17669074E-02  3.58794043E-01  7.00713084E-01 -3.95895162E-01
  1.21583436E+00  1.00000000E+00  1.56284979E-01  9.04690877E-01  1.00000000E+00
  6.17669074E-02  3.58794043E-01  7.00713084E-01 -3.95895162E-01  1.21583436E+00
  1.00000000E+00  5.98657005E-02  3.52955003E-01  7.06513006E-01 -4.13300077E-01
  1.22441727E+00  1.00000000E+00
P(S=P) Contraction coefficients            R   N=          57
  0.00000000E+00  0.00000000E+00  0.00000000E+00  2.36459947E-01  8.60618806E-01
  1.00000000E+00  0.00000000E+00  0.00000000E+00  0.00000000E+00  0.00000000E+00
  0.00000000E+00  0.00000000E+00  0.00000000E+00  0.00000000E+00  0.00000000E+00
  2.36459947E-01  8.60618806E-01  1.00000000E+00  0.00000000E+00  0.00000000E+00
  0.00000000E+00  2.36459947E-01  8.60618806E-01  1.00000000E+00  0.00000000E+00
  0.00000000E+00  0.00000000E+00  0.00000000E+00  0.00000000E+00  0.00000000E+00
  2.36459947E-01  8.60618806E-01  1.00000000E+00  0.00000000E+00  0.00000000E+00
  0.00000000E+00  0.00000000E+00  0.00000000E+00  0.00000000E+00  2.36459947E-01
  8.60618806E-01  1.00000000E+00  0.00000000E+00  0.00000000E+00  0.00000000E+00
  0.00000000E+00  0.00000000E+00  0.00000000E+00  2.36459947E-01  8.60618806E-01
  1.00000000E+00  0.00000000E+00  0.00000000E+00  0.00000000E+00  2.37972016E-01
  8.58953059E-01  1.00000000E+00
Coordinates of each shell                  R   N=          93
 -9.22418724E-01 -2.24120035E+00  1.78989511E-05 -9.22418724E-01 -2.24120035E+00
  1.78989511E-05 -9.22418724E-01 -2.24120035E+00  1.78989511E-05 -5.63089707E-01
 -3.40425032E+00 -1.68085946E+00 -5.63089707E-01 -3.40425032E+00 -1.68085946E+00
 -5.63111459E-01 -3.40421483E+00  1.68092573E+00 -5.63111459E-01 -3.40421483E+00
  1.68092573E+00  7.30689419E-01  1.26899716E-01 -5.47426187E-06  7.30689419E-01
  1.26899716E-01 -5.47426187E-06  7.30689419E-01  1.26899716E-01 -5.47426187E-06
 -7.86270878E-01  2.20304875E+00  1.04143798E-05 -7.86270878E-01  2.20304875E+00
  1.04143798E-05 -7.86270878E-01  2.20304875E+00  1.04143798E-05 -1.48228299E-01
  4.14202956E+00  1.72687450E-05 -1.48228299E-01  4.14202956E+00  1.72687450E-05
 -3.56742077E+00 -1.14651983E+00 -1.90977394E-05 -3.56742077E+00 -1.14651983E+00
 -1.90977394E-05 -3.56742077E+00 -1.14651983E+00 -1.90977394E-05 -5.25447665E+00
 -2.29520878E+00 -3.17727995E-05 -5.25447665E+00 -2.29520878E+00 -3.17727995E-05
 -3.44438133E+00  1.40569632E+00  2.49218424E-07 -3.44438133E+00  1.40569632E+00
  2.49218424E-07 -3.44438133E+00  1.40569632E+00  2.49218424E-07 -5.02288142E+00
  2.69942181E+00 -1.22917316E-06 -5.02288142E+00  2.69942181E+00 -1.22917316E-06
  3.38812399E+00  5.70819508E-02 -6.69062854E-06  3.38812399E+00  5.70819508E-02
 -6.69062854E-06  3.38812399E+00  5.70819508E-02 -6.69062854E-06  5.59455104E+00
 -2.39738254E-02 -4.90542879E-06  5.59455104E+00 -2.39738254E-02 -4.90542879E-06
  5.59455104E+00 -2.39738254E-02 -4.90542879E-06
Num ILSW                                   I              100
ILSW                                       I   N=         100
           0           1           0           0           2           0
           0           0           0           0         402          -1
           5           0           0           0           2           0
           0           0           1           0           1           0
           1           0           0           0           0           0
           0           0      100000           0          -1           0
           0           0           0           0           0           0
           0           0           0           1           0           0
           0 -2000000000           1           0           0           0
           0           0           4          52           0           0
           0           0           5           0           0           0
           0           0           0           0           0           1
           0           0           0           0           0           0
           0           0           0           0           0           0
           0           0           0           0           0           0
           0           0           0           0           0           0
           0           0           0           0
Num RLSW                                   I               52
RLSW                                       R   N=          52
  8.00000000E-01  7.20000000E-01  1.00000000E+00  8.10000000E-01  2.00000000E-01
  0.00000000E+00  0.00000000E+00  1.00000000E+00  0.00000000E+00  0.00000000E+00
  0.00000000E+00  0.00000000E+00  1.00000000E+00  0.00000000E+00  0.00000000E+00
  0.00000000E+00  0.00000000E+00  1.00000000E+00  0.00000000E+00  0.00000000E+00
  0.00000000E+00  0.00000000E+00  1.00000000E+00  0.00000000E+00  0.00000000E+00
  0.00000000E+00  0.00000000E+00  1.00000000E+00  0.00000000E+00  0.00000000E+00
  0.00000000E+00  0.00000000E+00  1.00000000E+00  0.00000000E+00  0.00000000E+00
  0.00000000E+00  0.00000000E+00  0.00000000E+00  1.00000000E+00  1.00000000E+00
  0.00000000E+00  1.00000000E+00  0.00000000E+00  0.00000000E+00  0.00000000E+00
  0.00000000E+00  0.00000000E+00  0.00000000E+00  0.00000000E+00  0.00000000E+00
  0.00000000E+00  0.00000000E+00
MxBond                                     I                4
NBond                                      I   N=          12
           4           1           1           3           3           1
           3           1           3           1           2           1
IBond                                      I   N=          48
           2           3           4           7           1           0
           0           0           1           0           0           0
           1           5          11           0           4           6
           9           0           5           0           0           0
           1           8           9           0           7           0
           0           0           5           7          10           0
           9           0           0           0           4          12
           0           0          11           0           0           0
RBond                                      R   N=          48
  1.00000000E+00  1.00000000E+00  1.00000000E+00  1.00000000E+00  1.00000000E+00
  0.00000000E+00  0.00000000E+00  0.00000000E+00  1.00000000E+00  0.00000000E+00
  0.00000000E+00  0.00000000E+00  1.00000000E+00  2.00000000E+00  1.00000000E+00
  0.00000000E+00  2.00000000E+00  1.00000000E+00  1.00000000E+00  0.00000000E+00
  1.00000000E+00  0.00000000E+00  0.00000000E+00  0.00000000E+00  1.00000000E+00
  1.00000000E+00  2.00000000E+00  0.00000000E+00  1.00000000E+00  0.00000000E+00
  0.00000000E+00  0.00000000E+00  1.00000000E+00  2.00000000E+00  1.00000000E+00
  0.00000000E+00  1.00000000E+00  0.00000000E+00  0.00000000E+00  0.00000000E+00
  1.00000000E+00  3.00000000E+00  0.00000000E+00  0.00000000E+00  3.00000000E+00
  0.00000000E+00  0.00000000E+00  0.00000000E+00
Virial Ratio                               R      2.008490334791241E+00
SCF Energy                                 R     -2.847764417309550E+02
Total Energy                               R     -2.847764417309550E+02
RMS Force                                  R      3.044569714857881E-05
RMS Density                                R      5.277405318817254E-09
NImag                                      I                0
Job Status                                 I                1
Nuclear derivative order                   I                2
Thermal Energy                             R     -2.846781602947129E+02
Thermal Enthalpy                           R     -2.846772161098993E+02
Thermal Free Energy                        R     -2.847131658004236E+02
External E-field                           R   N=          35
  0.00000000E+00  0.00000000E+00  0.00000000E+00  0.00000000E+00  0.00000000E+00
  0.00000000E+00  0.00000000E+00  0.00000000E+00  0.00000000E+00  0.00000000E+00
  0.00000000E+00  0.00000000E+00  0.00000000E+00  0.00000000E+00  0.00000000E+00
  0.00000000E+00  0.00000000E+00  0.00000000E+00  0.00000000E+00  0.00000000E+00
  0.00000000E+00  0.00000000E+00  0.00000000E+00  0.00000000E+00  0.00000000E+00
  0.00000000E+00  0.00000000E+00  0.00000000E+00  0.00000000E+00  0.00000000E+00
  0.00000000E+00  0.00000000E+00  0.00000000E+00  0.00000000E+00  0.00000000E+00
IOpCl                                      I                0
IROHF                                      I                0
Alpha Orbital Energies                     R   N=          73
 -1.42515091E+01 -1.01728513E+01 -1.01626147E+01 -1.01598732E+01 -1.01571018E+01
 -1.01515423E+01 -1.01483168E+01 -9.22533893E-01 -8.89610400E-01 -7.58050448E-01
 -7.34478459E-01 -6.27009384E-01 -5.71570579E-01 -5.52344091E-01 -4.67547827E-01
 -4.53211010E-01 -4.18776808E-01 -4.10990677E-01 -3.90499920E-01 -3.66419851E-01
 -3.44554864E-01 -3.25964900E-01 -3.21761864E-01 -2.40482178E-01 -5.99659516E-02
  3.77922401E-02  3.90990524E-02  1.16024607E-01  1.23150316E-01  1.49457846E-01
  1.68083482E-01  1.73261196E-01  1.86542446E-01  2.02302455E-01  2.22315191E-01
  2.77632422E-01  3.56577899E-01  3.77825809E-01  4.96430086E-01  5.06202691E-01
  6.68861867E-01  6.76546159E-01  6.92526332E-01  7.14388023E-01  7.24374013E-01
  7.34294804E-01  7.66212719E-01  7.80088998E-01  8.17477555E-01  8.27293295E-01
  8.44359037E-01  9.11482181E-01  9.46608512E-01  9.58834200E-01  9.69337047E-01
  9.76034892E-01  1.02038546E+00  1.03799204E+00  1.04529120E+00  1.10423452E+00
  1.18148412E+00  1.21672360E+00  1.25569096E+00  1.26895816E+00  1.30871388E+00
  1.36296714E+00  1.44015778E+00  1.61915840E+00  1.73087791E+00  1.83666574E+00
  2.02508030E+00  2.19546581E+00  2.99578017E+00
Alpha MO coefficients                      R   N=        5329
 -7.04856857E-05 -5.45391831E-04 -1.20794544E-04  2.54596908E-04  6.54629165E-09
  3.96465996E-03 -1.37587112E-03  1.89585022E-03 -5.22222785E-08 -4.53867570E-06
 -7.13918394E-05 -4.53253403E-06 -7.13684730E-05 -4.43550149E-04 -1.83952858E-03
  6.87227325E-04 -2.71094132E-04  9.04002276E-10  5.42206840E-02  4.02490200E-02
  2.39159967E-04 -4.99937336E-08 -5.01658699E-05 -4.32018277E-04 -2.66991668E-04
  7.37798666E-05  1.42269141E-09  3.93617064E-03 -3.79835057E-03 -5.18449455E-03
 -2.79185311E-08  5.95678929E-04  2.34436374E-03 -1.09523122E-04 -6.94630208E-04
 -4.44352048E-04 -3.15987692E-04 -4.16963789E-09 -2.53211780E-04  2.48164405E-03
  2.82330892E-03  4.48804228E-09  3.96833133E-04  1.99130365E-03 -8.45005354E-05
 -5.86687912E-04 -4.35889696E-04  3.02562341E-04  1.08200013E-09 -3.19250412E-03
  9.41835573E-04 -1.55872226E-03 -8.01358381E-09  3.22788136E-04  1.44079470E-03
  1.76204773E-03  6.56261724E-03 -1.88944946E-03  3.45057760E-05 -2.21920485E-09
  1.39085834E-02  9.56450987E-02 -3.29460877E-03  3.64405010E-08  9.85872265E-01
  1.15825914E-01 -5.66500756E-03  2.19322138E-04 -7.07107287E-09 -1.23558339E-01
  3.80731506E-02 -1.47916134E-03  4.53341732E-08 -2.06370123E-02 -4.35806029E-03
  2.78660667E-04 -5.32711513E-04  3.89212203E-09  2.07064170E-02  4.66522183E-03
  1.22766109E-02 -5.78597487E-08 -1.34968620E-03  2.47594895E-03 -1.34972286E-03
  2.47598082E-03  9.83306171E-01  1.10769790E-01  1.25076354E-05  1.96268196E-04
  6.33148768E-08 -1.09031188E-01  8.86735164E-04 -4.37159549E-03 -3.80085755E-07
 -4.29712593E-02 -9.15879848E-03 -9.68726394E-04  2.00396267E-03  1.42739068E-08
  3.48598939E-02  9.82425066E-03 -1.57477463E-02 -3.66582307E-08 -8.43459793E-04
  9.60855814E-04 -9.90350437E-04 -1.61996468E-04 -5.05238500E-04  2.93032220E-04
  1.30414702E-08 -2.30446104E-03 -2.21619515E-03 -3.58144680E-04 -7.15351428E-08
 -1.65908294E-04 -1.45981916E-04 -1.77329089E-03 -6.46766911E-04 -7.11653942E-04
 -3.49347996E-04  7.80075818E-09 -1.66693267E-03 -6.02154834E-04  1.77751380E-03
 -2.67717242E-08 -1.88761588E-04  2.05032648E-04 -5.89000494E-02 -9.96564757E-03
  2.60803147E-03 -1.72697438E-05 -8.50493066E-09  2.81671360E-02 -2.28244679E-02
  1.15247009E-03  1.35807453E-07 -1.39435654E-06 -2.27773646E-04 -1.10274704E-04
  1.43396227E-05  9.38884509E-09  6.19362217E-03  1.36127832E-04 -1.07037078E-04
 -6.01024930E-08 -3.13481762E-02 -4.77088014E-03 -1.10302606E-03  2.91609708E-04
  7.13819991E-09  9.82522143E-03  1.50128394E-03  4.80780133E-03 -6.95495425E-08
 -5.06334720E-04  1.91102860E-04 -5.06312737E-04  1.91113338E-04  5.45733041E-02
  1.45878808E-03 -3.15322781E-03 -1.08347042E-05  1.04846961E-08  5.06198982E-02
  5.89479173E-02 -2.54811564E-03 -1.32501195E-07 -7.04636886E-02 -9.16181440E-03
 -1.34184644E-03  4.35211504E-04  3.50348411E-09  1.67415829E-02 -2.37401518E-04
 -1.25177358E-02 -6.42428486E-08  4.49104560E-04  3.82428590E-03 -9.11359056E-03
 -2.21494811E-03 -6.58908612E-04 -2.59345088E-04 -6.15810965E-09  2.44278575E-03
  3.87416454E-03  3.39835076E-03  2.36318871E-08  3.99033454E-04  2.52452381E-03
 -5.79910736E-03 -1.64345316E-03 -6.37433143E-04  2.29532706E-04  3.56251227E-09