Ground State Calculation for 1_C5H5CN in CAM-B3LYP/6-31+Gd              
Freq      RCAM-B3LYP                                                  6-31+G(d)           
Number of atoms                            I               12
Info1-9                                    I   N=           9
          31          19        1002           0           0         100
           6          18        4002
Full Title                                 C   N=           5
Ground State Calculation for 1_C5H5CN in CAM-B3LYP/6-31+Gd  
Route                                      C   N=           3
# CAM-B3LYP/6-31+G(d) Opt Freq      
Charge                                     I                0
Multiplicity                               I                1
Number of electrons                        I               48
Number of alpha electrons                  I               24
Number of beta electrons                   I               24
Number of basis functions                  I              143
Number of independent functions            I              143
Number of point charges in /Mol/           I                0
Number of translation vectors              I                0
Atomic numbers                             I   N=          12
           6           1           1           6           6           1
           6           1           6           1           6           7
Nuclear charges                            R   N=          12
  6.00000000E+00  1.00000000E+00  1.00000000E+00  6.00000000E+00  6.00000000E+00
  1.00000000E+00  6.00000000E+00  1.00000000E+00  6.00000000E+00  1.00000000E+00
  6.00000000E+00  7.00000000E+00
Current cartesian coordinates              R   N=          36
 -9.27178451E-01 -2.21924768E+00 -9.52924563E-05 -5.69282662E-01 -3.40787328E+00
 -1.66309717E+00 -5.69165982E-01 -3.40806350E+00  1.66273789E+00  7.05261639E-01
  1.13120995E-01  3.06059432E-05 -7.85582777E-01  2.18839564E+00 -4.82292920E-05
 -1.28038448E-01  4.12793305E+00 -8.52930174E-05 -3.54440169E+00 -1.13926100E+00
  1.06374350E-04 -5.24136931E+00 -2.28455969E+00  1.71157796E-04 -3.42911641E+00
  1.40235011E+00 -7.64812913E-06 -5.01797023E+00  2.69388401E+00 -1.43807350E-05
  3.39182031E+00  6.43341183E-02  3.40974130E-05  5.58014441E+00 -2.56391036E-02
  2.40507265E-05
Number of symbols in /Mol/                 I                0
Int Atom Types                             I   N=          12
           0           0           0           0           0           0
           0           0           0           0           0           0
Force Field                                I                0
Atom Types                                 C   N=          12
                                                            
                                                            
                        
MM charges                                 R   N=          12
  0.00000000E+00  0.00000000E+00  0.00000000E+00  0.00000000E+00  0.00000000E+00
  0.00000000E+00  0.00000000E+00  0.00000000E+00  0.00000000E+00  0.00000000E+00
  0.00000000E+00  0.00000000E+00
Integer atomic weights                     I   N=          12
          12           1           1          12          12           1
          12           1          12           1          12          14
Real atomic weights                        R   N=          12
  1.20000000E+01  1.00782504E+00  1.00782504E+00  1.20000000E+01  1.20000000E+01
  1.00782504E+00  1.20000000E+01  1.00782504E+00  1.20000000E+01  1.00782504E+00
  1.20000000E+01  1.40030740E+01
Atom fragment info                         I   N=          12
           0           0           0           0           0           0
           0           0           0           0           0           0
Atom residue num                           I   N=          12
           0           0           0           0           0           0
           0           0           0           0           0           0
Nuclear spins                              I   N=          12
           0           1           1           0           0           1
           0           1           0           1           0           2
Nuclear ZEff                               R   N=          12
 -3.60000000E+00 -1.00000000E+00 -1.00000000E+00 -3.60000000E+00 -3.60000000E+00
 -1.00000000E+00 -3.60000000E+00 -1.00000000E+00 -3.60000000E+00 -1.00000000E+00
 -3.60000000E+00 -4.55000000E+00
Nuclear ZNuc                               R   N=          12
  6.00000000E+00  1.00000000E+00  1.00000000E+00  6.00000000E+00  6.00000000E+00
  1.00000000E+00  6.00000000E+00  1.00000000E+00  6.00000000E+00  1.00000000E+00
  6.00000000E+00  7.00000000E+00
Nuclear QMom                               R   N=          12
  0.00000000E+00  0.00000000E+00  0.00000000E+00  0.00000000E+00  0.00000000E+00
  0.00000000E+00  0.00000000E+00  0.00000000E+00  0.00000000E+00  0.00000000E+00
  0.00000000E+00  2.04400000E+00
Nuclear GFac                               R   N=          12
  0.00000000E+00  2.79284600E+00  2.79284600E+00  0.00000000E+00  0.00000000E+00
  2.79284600E+00  0.00000000E+00  2.79284600E+00  0.00000000E+00  2.79284600E+00
  0.00000000E+00  4.03761000E-01
MicOpt                                     I   N=          12
          -1          -1          -1          -1          -1          -1
          -1          -1          -1          -1          -1          -1
Number of residues                         I                0
Number of secondary structures             I                0
Redundant internal dimensions              I   N=           4
          56          12          20          24
Redundant internal coordinate indices      I   N=         224
           1           2           0           0           1           3
           0           0           1           4           0           0
           1           7           0           0           4           5
           0           0           4          11           0           0
           5           6           0           0           5           9
           0           0           7           8           0           0
           7           9           0           0           9          10
           0           0          11          12           0           0
           2           1           3           0           2           1
           4           0           2           1           7           0
           3           1           4           0           3           1
           7           0           4           1           7           0
           1           4           5           0           1           4
          11           0           5           4          11           0
           4           5           6           0           4           5
           9           0           6           5           9           0
           1           7           8           0           1           7
           9           0           8           7           9           0
           5           9           7           0           5           9
          10           0           7           9          10           0
           4          11          12         -61           4          11
          12         -62           2           1           4           5
           2           1           4          11           3           1
           4           5           3           1           4          11
           7           1           4           5           7           1
           4          11           2           1           7           8
           2           1           7           9           3           1
           7           8           3           1           7           9
           4           1           7           8           4           1
           7           9           1           4           5           6
           1           4           5           9          11           4
           5           6          11           4           5           9
           4           5           9           7           4           5
           9          10           6           5           9           7
           6           5           9          10           1           7
           9           5           1           7           9          10
           8           7           9           5           8           7
           9          10
Redundant internal coordinates             R   N=          56
  2.07520974E+00  2.07520364E+00  2.84689380E+00  2.83129454E+00  2.55526553E+00
  2.68700161E+00  2.04796726E+00  2.75792270E+00  2.04729289E+00  2.54422439E+00
  2.04756350E+00  2.19017295E+00  1.85901771E+00  1.95023453E+00  1.95839058E+00
  1.95020554E+00  1.95836238E+00  1.79009922E+00  1.90797136E+00  2.16330194E+00
  2.21191201E+00  2.19177371E+00  1.90473375E+00  2.18667785E+00  2.15654518E+00
  1.91682859E+00  2.20981153E+00  1.90514503E+00  2.17003177E+00  2.20800851E+00
  3.16452701E+00  3.14160164E+00  2.10093715E+00 -1.04057910E+00 -2.10115156E+00
  1.04051749E+00 -1.31028185E-04  3.14153803E+00  1.04622614E+00 -2.09528392E+00
 -1.04617068E+00  2.09550457E+00 -3.14154075E+00  1.34504408E-04 -3.14153480E+00
  8.39555424E-05 -2.12220107E-05 -3.14158778E+00  4.57091753E-06  3.14156892E+00
 -3.14156208E+00  2.27412420E-06 -9.18654968E-05  3.14152986E+00  3.14158654E+00
  2.29598850E-05
ZRed-IntVec                                I   N=          56
           0           0           0           0           0           0
           0           0           0           0           0           0
           0           0           0           0           0           0
           0           0           0           0           0           0
           0           0           0           0           0           0
           0           0           0           0           0           0
           0           0           0           0           0           0
           0           0           0           0           0           0
           0           0           0           0           0           0
           0           0
ZRed-FPVec                                 R   N=          56
  0.00000000E+00  0.00000000E+00  0.00000000E+00  0.00000000E+00  0.00000000E+00
  0.00000000E+00  0.00000000E+00  0.00000000E+00  0.00000000E+00  0.00000000E+00
  0.00000000E+00  0.00000000E+00  0.00000000E+00  0.00000000E+00  0.00000000E+00
  0.00000000E+00  0.00000000E+00  0.00000000E+00  0.00000000E+00  0.00000000E+00
  0.00000000E+00  0.00000000E+00  0.00000000E+00  0.00000000E+00  0.00000000E+00
  0.00000000E+00  0.00000000E+00  0.00000000E+00  0.00000000E+00  0.00000000E+00
  0.00000000E+00  0.00000000E+00  0.00000000E+00  0.00000000E+00  0.00000000E+00
  0.00000000E+00  0.00000000E+00  0.00000000E+00  0.00000000E+00  0.00000000E+00
  0.00000000E+00  0.00000000E+00  0.00000000E+00  0.00000000E+00  0.00000000E+00
  0.00000000E+00  0.00000000E+00  0.00000000E+00  0.00000000E+00  0.00000000E+00
  0.00000000E+00  0.00000000E+00  0.00000000E+00  0.00000000E+00  0.00000000E+00
  0.00000000E+00
ZRed-Constraint1                           R   N=          56
  2.07520974E+00  2.07520364E+00  2.84689380E+00  2.83129454E+00  2.55526553E+00
  2.68700161E+00  2.04796726E+00  2.75792270E+00  2.04729289E+00  2.54422439E+00
  2.04756350E+00  2.19017295E+00  1.85901771E+00  1.95023453E+00  1.95839058E+00
  1.95020554E+00  1.95836238E+00  1.79009922E+00  1.90797136E+00  2.16330194E+00
  2.21191201E+00  2.19177371E+00  1.90473375E+00  2.18667785E+00  2.15654518E+00
  1.91682859E+00  2.20981153E+00  1.90514503E+00  2.17003177E+00  2.20800851E+00
  3.16452701E+00  3.14160164E+00  2.10093715E+00 -1.04057910E+00 -2.10115156E+00
  1.04051749E+00 -1.31028184E-04  3.14153803E+00  1.04622614E+00 -2.09528392E+00
 -1.04617068E+00  2.09550457E+00 -3.14154075E+00  1.34504408E-04 -3.14153480E+00
  8.39555424E-05 -2.12220055E-05 -3.14158778E+00  4.57091753E-06  3.14156892E+00
 -3.14156208E+00  2.27402656E-06 -9.18654993E-05  3.14152986E+00  3.14158654E+00
  2.29598947E-05
ZRed-Constraint2                           R   N=          56
  2.11304451E+00  2.11292606E+00  2.85198020E+00  2.85196499E+00  2.56878562E+00
  2.91017823E+00  2.05799729E+00  2.78125356E+00  2.05533198E+00  2.56875696E+00
  2.05802974E+00  2.16675998E+00  1.89970604E+00  1.94172817E+00  1.94178641E+00
  1.94231672E+00  1.94228517E+00  1.79512308E+00  1.91124120E+00  2.12924039E+00
  2.24270368E+00  2.23382272E+00  1.90359749E+00  2.14576510E+00  2.12928611E+00
  1.91132229E+00  2.24257688E+00  1.90349376E+00  2.14596789E+00  2.23372365E+00
  3.14159265E+00  3.14159266E+00  2.08076409E+00 -1.06110236E+00 -2.08067913E+00
  1.06063972E+00  4.76547158E-04 -3.14138990E+00  1.06108508E+00 -2.08074201E+00
 -1.06067561E+00  2.08068262E+00  3.14133207E+00 -4.95015376E-04  3.14138345E+00
 -2.97396729E-04  8.74943426E-05  3.14159195E+00 -2.94884907E-05 -3.14150861E+00
  3.14148034E+00  1.21112619E-06  3.43546352E-04 -3.14136997E+00 -3.14150311E+00
 -3.13151404E-05
SymInf integers                            I   N=          26
           1           1           1           1           1           0
           0           0           0           0           0           0
           0           0           0           0           0           0
           0           0           0           0           0           0
           0           0
RotTr to input orientation                 R   N=          12
  1.67737196E-01  2.34467626E-01 -9.57543297E-01 -5.56984523E-01 -7.78882153E-01
 -2.88289493E-01 -8.13407938E-01  5.81693668E-01 -5.26698581E-05 -7.22665713E-01
 -4.82256885E+00 -1.20979738E+00
Number of contracted shells                I               45
Number of primitive shells                 I              104
Pure/Cartesian d shells                    I                1
Pure/Cartesian f shells                    I                0
Highest angular momentum                   I                2
Largest degree of contraction              I                6
Shell types                                I   N=          45
           0          -1          -1          -1           2           0
           0           0           0           0          -1          -1
          -1           2           0          -1          -1          -1
           2           0           0           0          -1          -1
          -1           2           0           0           0          -1
          -1          -1           2           0           0           0
          -1          -1          -1           2           0          -1
          -1          -1           2
Number of primitives per shell             I   N=          45
           6           3           1           1           1           3
           1           3           1           6           3           1
           1           1           6           3           1           1
           1           3           1           6           3           1
           1           1           3           1           6           3
           1           1           1           3           1           6
           3           1           1           1           6           3
           1           1           1
Shell to atom map                          I   N=          45
           1           1           1           1           1           2
           2           3           3           4           4           4
           4           4           5           5           5           5
           5           6           6           7           7           7
           7           7           8           8           9           9
           9           9           9          10          10          11
          11          11          11          11          12          12
          12          12          12
Primitive exponents                        R   N=         104
  3.04752488E+03  4.57369518E+02  1.03948685E+02  2.92101553E+01  9.28666296E+00
  3.16392696E+00  7.86827235E+00  1.88128854E+00  5.44249258E-01  1.68714478E-01
  4.38000000E-02  8.00000000E-01  1.87311370E+01  2.82539436E+00  6.40121692E-01
  1.61277759E-01  1.87311370E+01  2.82539436E+00  6.40121692E-01  1.61277759E-01
  3.04752488E+03  4.57369518E+02  1.03948685E+02  2.92101553E+01  9.28666296E+00
  3.16392696E+00  7.86827235E+00  1.88128854E+00  5.44249258E-01  1.68714478E-01
  4.38000000E-02  8.00000000E-01  3.04752488E+03  4.57369518E+02  1.03948685E+02
  2.92101553E+01  9.28666296E+00  3.16392696E+00  7.86827235E+00  1.88128854E+00
  5.44249258E-01  1.68714478E-01  4.38000000E-02  8.00000000E-01  1.87311370E+01
  2.82539436E+00  6.40121692E-01  1.61277759E-01  3.04752488E+03  4.57369518E+02
  1.03948685E+02  2.92101553E+01  9.28666296E+00  3.16392696E+00  7.86827235E+00
  1.88128854E+00  5.44249258E-01  1.68714478E-01  4.38000000E-02  8.00000000E-01
  1.87311370E+01  2.82539436E+00  6.40121692E-01  1.61277759E-01  3.04752488E+03
  4.57369518E+02  1.03948685E+02  2.92101553E+01  9.28666296E+00  3.16392696E+00
  7.86827235E+00  1.88128854E+00  5.44249258E-01  1.68714478E-01  4.38000000E-02
  8.00000000E-01  1.87311370E+01  2.82539436E+00  6.40121692E-01  1.61277759E-01
  3.04752488E+03  4.57369518E+02  1.03948685E+02  2.92101553E+01  9.28666296E+00
  3.16392696E+00  7.86827235E+00  1.88128854E+00  5.44249258E-01  1.68714478E-01
  4.38000000E-02  8.00000000E-01  4.17351146E+03  6.27457911E+02  1.42902093E+02
  4.02343293E+01  1.28202129E+01  4.39043701E+00  1.16263619E+01  2.71627981E+00
  7.72218397E-01  2.12031498E-01  6.39000000E-02  8.00000000E-01
Contraction coefficients                   R   N=         104
  1.83473713E-03  1.40373228E-02  6.88426223E-02  2.32184443E-01  4.67941348E-01
  3.62311985E-01 -1.19332420E-01 -1.60854152E-01  1.14345644E+00  1.00000000E+00
  1.00000000E+00  1.00000000E+00  3.34946043E-02  2.34726953E-01  8.13757326E-01
  1.00000000E+00  3.34946043E-02  2.34726953E-01  8.13757326E-01  1.00000000E+00
  1.83473713E-03  1.40373228E-02  6.88426223E-02  2.32184443E-01  4.67941348E-01
  3.62311985E-01 -1.19332420E-01 -1.60854152E-01  1.14345644E+00  1.00000000E+00
  1.00000000E+00  1.00000000E+00  1.83473713E-03  1.40373228E-02  6.88426223E-02
  2.32184443E-01  4.67941348E-01  3.62311985E-01 -1.19332420E-01 -1.60854152E-01
  1.14345644E+00  1.00000000E+00  1.00000000E+00  1.00000000E+00  3.34946043E-02
  2.34726953E-01  8.13757326E-01  1.00000000E+00  1.83473713E-03  1.40373228E-02
  6.88426223E-02  2.32184443E-01  4.67941348E-01  3.62311985E-01 -1.19332420E-01
 -1.60854152E-01  1.14345644E+00  1.00000000E+00  1.00000000E+00  1.00000000E+00
  3.34946043E-02  2.34726953E-01  8.13757326E-01  1.00000000E+00  1.83473713E-03
  1.40373228E-02  6.88426223E-02  2.32184443E-01  4.67941348E-01  3.62311985E-01
 -1.19332420E-01 -1.60854152E-01  1.14345644E+00  1.00000000E+00  1.00000000E+00
  1.00000000E+00  3.34946043E-02  2.34726953E-01  8.13757326E-01  1.00000000E+00
  1.83473713E-03  1.40373228E-02  6.88426223E-02  2.32184443E-01  4.67941348E-01
  3.62311985E-01 -1.19332420E-01 -1.60854152E-01  1.14345644E+00  1.00000000E+00
  1.00000000E+00  1.00000000E+00  1.83477216E-03  1.39946270E-02  6.85865518E-02
  2.32240873E-01  4.69069948E-01  3.60455199E-01 -1.14961182E-01 -1.69117479E-01
  1.14585195E+00  1.00000000E+00  1.00000000E+00  1.00000000E+00
P(S=P) Contraction coefficients            R   N=         104
  0.00000000E+00  0.00000000E+00  0.00000000E+00  0.00000000E+00  0.00000000E+00
  0.00000000E+00  6.89990666E-02  3.16423961E-01  7.44308291E-01  1.00000000E+00
  1.00000000E+00  0.00000000E+00  0.00000000E+00  0.00000000E+00  0.00000000E+00
  0.00000000E+00  0.00000000E+00  0.00000000E+00  0.00000000E+00  0.00000000E+00
  0.00000000E+00  0.00000000E+00  0.00000000E+00  0.00000000E+00  0.00000000E+00
  0.00000000E+00  6.89990666E-02  3.16423961E-01  7.44308291E-01  1.00000000E+00
  1.00000000E+00  0.00000000E+00  0.00000000E+00  0.00000000E+00  0.00000000E+00
  0.00000000E+00  0.00000000E+00  0.00000000E+00  6.89990666E-02  3.16423961E-01
  7.44308291E-01  1.00000000E+00  1.00000000E+00  0.00000000E+00  0.00000000E+00
  0.00000000E+00  0.00000000E+00  0.00000000E+00  0.00000000E+00  0.00000000E+00
  0.00000000E+00  0.00000000E+00  0.00000000E+00  0.00000000E+00  6.89990666E-02
  3.16423961E-01  7.44308291E-01  1.00000000E+00  1.00000000E+00  0.00000000E+00
  0.00000000E+00  0.00000000E+00  0.00000000E+00  0.00000000E+00  0.00000000E+00
  0.00000000E+00  0.00000000E+00  0.00000000E+00  0.00000000E+00  0.00000000E+00
  6.89990666E-02  3.16423961E-01  7.44308291E-01  1.00000000E+00  1.00000000E+00
  0.00000000E+00  0.00000000E+00  0.00000000E+00  0.00000000E+00  0.00000000E+00
  0.00000000E+00  0.00000000E+00  0.00000000E+00  0.00000000E+00  0.00000000E+00
  0.00000000E+00  6.89990666E-02  3.16423961E-01  7.44308291E-01  1.00000000E+00
  1.00000000E+00  0.00000000E+00  0.00000000E+00  0.00000000E+00  0.00000000E+00
  0.00000000E+00  0.00000000E+00  0.00000000E+00  6.75797439E-02  3.23907296E-01
  7.40895140E-01  1.00000000E+00  1.00000000E+00  0.00000000E+00
Coordinates of each shell                  R   N=         135
 -9.27178451E-01 -2.21924768E+00 -9.52924563E-05 -9.27178451E-01 -2.21924768E+00
 -9.52924563E-05 -9.27178451E-01 -2.21924768E+00 -9.52924563E-05 -9.27178451E-01
 -2.21924768E+00 -9.52924563E-05 -9.27178451E-01 -2.21924768E+00 -9.52924563E-05
 -5.69282662E-01 -3.40787328E+00 -1.66309717E+00 -5.69282662E-01 -3.40787328E+00
 -1.66309717E+00 -5.69165982E-01 -3.40806350E+00  1.66273789E+00 -5.69165982E-01
 -3.40806350E+00  1.66273789E+00  7.05261639E-01  1.13120995E-01  3.06059432E-05
  7.05261639E-01  1.13120995E-01  3.06059432E-05  7.05261639E-01  1.13120995E-01
  3.06059432E-05  7.05261639E-01  1.13120995E-01  3.06059432E-05  7.05261639E-01
  1.13120995E-01  3.06059432E-05 -7.85582777E-01  2.18839564E+00 -4.82292920E-05
 -7.85582777E-01  2.18839564E+00 -4.82292920E-05 -7.85582777E-01  2.18839564E+00
 -4.82292920E-05 -7.85582777E-01  2.18839564E+00 -4.82292920E-05 -7.85582777E-01
  2.18839564E+00 -4.82292920E-05 -1.28038448E-01  4.12793305E+00 -8.52930174E-05
 -1.28038448E-01  4.12793305E+00 -8.52930174E-05 -3.54440169E+00 -1.13926100E+00
  1.06374350E-04 -3.54440169E+00 -1.13926100E+00  1.06374350E-04 -3.54440169E+00
 -1.13926100E+00  1.06374350E-04 -3.54440169E+00 -1.13926100E+00  1.06374350E-04
 -3.54440169E+00 -1.13926100E+00  1.06374350E-04 -5.24136931E+00 -2.28455969E+00
  1.71157796E-04 -5.24136931E+00 -2.28455969E+00  1.71157796E-04 -3.42911641E+00
  1.40235011E+00 -7.64812913E-06 -3.42911641E+00  1.40235011E+00 -7.64812913E-06
 -3.42911641E+00  1.40235011E+00 -7.64812913E-06 -3.42911641E+00  1.40235011E+00
 -7.64812913E-06 -3.42911641E+00  1.40235011E+00 -7.64812913E-06 -5.01797023E+00
  2.69388401E+00 -1.43807350E-05 -5.01797023E+00  2.69388401E+00 -1.43807350E-05
  3.39182031E+00  6.43341183E-02  3.40974130E-05  3.39182031E+00  6.43341183E-02
  3.40974130E-05  3.39182031E+00  6.43341183E-02  3.40974130E-05  3.39182031E+00
  6.43341183E-02  3.40974130E-05  3.39182031E+00  6.43341183E-02  3.40974130E-05
  5.58014441E+00 -2.56391036E-02  2.40507265E-05  5.58014441E+00 -2.56391036E-02
  2.40507265E-05  5.58014441E+00 -2.56391036E-02  2.40507265E-05  5.58014441E+00
 -2.56391036E-02  2.40507265E-05  5.58014441E+00 -2.56391036E-02  2.40507265E-05
Num ILSW                                   I              100
ILSW                                       I   N=         100
           0           1           0           0           2           0
           0           0           0           0       20419          -1
           5           0           0           0           2           0
           0           0           1           0           1           0
           1           0           0           0           0           0
           0           0      100000           0          -1           0
           0           0           0           0           0           0
           0           0           0           1           0           0
           0 -2000000000           1           0           0           0
           0           0           4          52           0           0
           0           0          40           0           0           0
           0           0           0           0           0           1
           0           0           0           0           0           0
           0           0           0           0           0           0
           0           0           0           0           0           0
           0           0           0           0           0           0
           0           0           0           0
Num RLSW                                   I               52
RLSW                                       R   N=          52
  1.00000000E+00  1.00000000E+00  1.00000000E+00  8.10000000E-01  1.00000000E+00
  0.00000000E+00  3.30000000E-01  1.90000000E-01  0.00000000E+00  4.60000000E-01
  0.00000000E+00  3.30000000E-01  1.90000000E-01  0.00000000E+00  4.60000000E-01
  0.00000000E+00  0.00000000E+00  1.00000000E+00  0.00000000E+00  0.00000000E+00
  0.00000000E+00  0.00000000E+00  1.00000000E+00  0.00000000E+00  0.00000000E+00
  0.00000000E+00  0.00000000E+00  1.00000000E+00  0.00000000E+00  0.00000000E+00
  0.00000000E+00  0.00000000E+00  1.00000000E+00  0.00000000E+00  0.00000000E+00
  0.00000000E+00  0.00000000E+00  0.00000000E+00  1.00000000E+00  1.00000000E+00
  0.00000000E+00  1.00000000E+00  0.00000000E+00  0.00000000E+00  0.00000000E+00
  0.00000000E+00  0.00000000E+00  0.00000000E+00  0.00000000E+00  0.00000000E+00
  0.00000000E+00  0.00000000E+00
MxBond                                     I                4
NBond                                      I   N=          12
           4           1           1           3           3           1
           3           1           3           1           2           1
IBond                                      I   N=          48
           2           3           4           7           1           0
           0           0           1           0           0           0
           1           5          11           0           4           6
           9           0           5           0           0           0
           1           8           9           0           7           0
           0           0           5           7          10           0
           9           0           0           0           4          12
           0           0          11           0           0           0
RBond                                      R   N=          48
  1.00000000E+00  1.00000000E+00  1.00000000E+00  1.00000000E+00  1.00000000E+00
  0.00000000E+00  0.00000000E+00  0.00000000E+00  1.00000000E+00  0.00000000E+00
  0.00000000E+00  0.00000000E+00  1.00000000E+00  2.00000000E+00  1.00000000E+00
  0.00000000E+00  2.00000000E+00  1.00000000E+00  1.00000000E+00  0.00000000E+00
  1.00000000E+00  0.00000000E+00  0.00000000E+00  0.00000000E+00  1.00000000E+00
  1.00000000E+00  2.00000000E+00  0.00000000E+00  1.00000000E+00  0.00000000E+00
  0.00000000E+00  0.00000000E+00  1.00000000E+00  2.00000000E+00  1.00000000E+00
  0.00000000E+00  1.00000000E+00  0.00000000E+00  0.00000000E+00  0.00000000E+00
  1.00000000E+00  3.00000000E+00  0.00000000E+00  0.00000000E+00  3.00000000E+00
  0.00000000E+00  0.00000000E+00  0.00000000E+00
Virial Ratio                               R      2.009355614699500E+00
SCF Energy                                 R     -2.861985949020755E+02
Total Energy                               R     -2.861985949020755E+02
RMS Force                                  R      4.301513263257920E-05
RMS Density                                R      4.380287582780472E-09
NImag                                      I                0
Job Status                                 I                1
Nuclear derivative order                   I                2
Thermal Energy                             R     -2.860998498301703E+02
Thermal Enthalpy                           R     -2.860989056453566E+02
Thermal Free Energy                        R     -2.861350821120064E+02
External E-field                           R   N=          35
  0.00000000E+00  0.00000000E+00  0.00000000E+00  0.00000000E+00  0.00000000E+00
  0.00000000E+00  0.00000000E+00  0.00000000E+00  0.00000000E+00  0.00000000E+00
  0.00000000E+00  0.00000000E+00  0.00000000E+00  0.00000000E+00  0.00000000E+00
  0.00000000E+00  0.00000000E+00  0.00000000E+00  0.00000000E+00  0.00000000E+00
  0.00000000E+00  0.00000000E+00  0.00000000E+00  0.00000000E+00  0.00000000E+00
  0.00000000E+00  0.00000000E+00  0.00000000E+00  0.00000000E+00  0.00000000E+00
  0.00000000E+00  0.00000000E+00  0.00000000E+00  0.00000000E+00  0.00000000E+00
IOpCl                                      I                0
IROHF                                      I                0
Alpha Orbital Energies                     R   N=         143
 -1.44178604E+01 -1.03149607E+01 -1.03121899E+01 -1.03040164E+01 -1.02985469E+01
 -1.02943860E+01 -1.02904644E+01 -9.99561399E-01 -9.75525078E-01 -8.41069644E-01
 -8.20992656E-01 -7.02184665E-01 -6.48347618E-01 -6.29143305E-01 -5.42324175E-01
 -5.20862202E-01 -4.86307044E-01 -4.79751296E-01 -4.59038163E-01 -4.37051394E-01
 -4.35507617E-01 -3.97344683E-01 -3.89162365E-01 -3.03604950E-01 -2.73501881E-02
  2.48253998E-02  4.48410553E-02  4.53858994E-02  6.02023031E-02  6.30332841E-02
  6.59322845E-02  6.71232293E-02  7.99167025E-02  8.89729000E-02  1.01790835E-01
  1.06946044E-01  1.09237163E-01  1.10658255E-01  1.40747369E-01  1.40758782E-01
  1.59017163E-01  1.62363102E-01  1.65322599E-01  1.68862137E-01  1.76673244E-01
  1.95938399E-01  1.99901934E-01  2.15331872E-01  2.21363400E-01  2.33505473E-01
  2.36470770E-01  2.59147059E-01  2.68480834E-01  2.74119801E-01  2.81673162E-01
  2.97495326E-01  3.01890100E-01  3.05145110E-01  3.07009579E-01  3.16195241E-01