 Entering Gaussian System, Link 0=g16
 Input=CH2O_STO-3G_linked.gjf
 Output=CH2O_STO-3G_linked.log
 Initial command:
 /apps/gaussian/g16-c01-avx2/g16/l1.exe "/var/tmp/pbs.8972670.pbs/Gau-1990808.inp" -scrdir="/var/tmp/pbs.8972670.pbs/"
 Entering Link 1 = /apps/gaussian/g16-c01-avx2/g16/l1.exe PID=   1990810.
  
 Copyright (c) 1988-2019, Gaussian, Inc.  All Rights Reserved.
  
 This is part of the Gaussian(R) 16 program.  It is based on
 the Gaussian(R) 09 system (copyright 2009, Gaussian, Inc.),
 the Gaussian(R) 03 system (copyright 2003, Gaussian, Inc.),
 the Gaussian(R) 98 system (copyright 1998, Gaussian, Inc.),
 the Gaussian(R) 94 system (copyright 1995, Gaussian, Inc.),
 the Gaussian 92(TM) system (copyright 1992, Gaussian, Inc.),
 the Gaussian 90(TM) system (copyright 1990, Gaussian, Inc.),
 the Gaussian 88(TM) system (copyright 1988, Gaussian, Inc.),
 the Gaussian 86(TM) system (copyright 1986, Carnegie Mellon
 University), and the Gaussian 82(TM) system (copyright 1983,
 Carnegie Mellon University). Gaussian is a federally registered
 trademark of Gaussian, Inc.
  
 This software contains proprietary and confidential information,
 including trade secrets, belonging to Gaussian, Inc.
  
 This software is provided under written license and may be
 used, copied, transmitted, or stored only in accord with that
 written license.
  
 The following legend is applicable only to US Government
 contracts under FAR:
  
                    RESTRICTED RIGHTS LEGEND
  
 Use, reproduction and disclosure by the US Government is
 subject to restrictions as set forth in subparagraphs (a)
 and (c) of the Commercial Computer Software - Restricted
 Rights clause in FAR 52.227-19.
  
 Gaussian, Inc.
 340 Quinnipiac St., Bldg. 40, Wallingford CT 06492
  
  
 ---------------------------------------------------------------
 Warning -- This program may not be used in any manner that
 competes with the business of Gaussian, Inc. or will provide
 assistance to any competitor of Gaussian, Inc.  The licensee
 of this program is prohibited from giving any competitor of
 Gaussian, Inc. access to this program.  By using this program,
 the user acknowledges that Gaussian, Inc. is engaged in the
 business of creating and licensing software in the field of
 computational chemistry and represents and warrants to the
 licensee that it is not a competitor of Gaussian, Inc. and that
 it will not use this program in any manner prohibited above.
 ---------------------------------------------------------------
  

 Cite this work as:
 Gaussian 16, Revision C.01,
 M. J. Frisch, G. W. Trucks, H. B. Schlegel, G. E. Scuseria, 
 M. A. Robb, J. R. Cheeseman, G. Scalmani, V. Barone, 
 G. A. Petersson, H. Nakatsuji, X. Li, M. Caricato, A. V. Marenich, 
 J. Bloino, B. G. Janesko, R. Gomperts, B. Mennucci, H. P. Hratchian, 
 J. V. Ortiz, A. F. Izmaylov, J. L. Sonnenberg, D. Williams-Young, 
 F. Ding, F. Lipparini, F. Egidi, J. Goings, B. Peng, A. Petrone, 
 T. Henderson, D. Ranasinghe, V. G. Zakrzewski, J. Gao, N. Rega, 
 G. Zheng, W. Liang, M. Hada, M. Ehara, K. Toyota, R. Fukuda, 
 J. Hasegawa, M. Ishida, T. Nakajima, Y. Honda, O. Kitao, H. Nakai, 
 T. Vreven, K. Throssell, J. A. Montgomery, Jr., J. E. Peralta, 
 F. Ogliaro, M. J. Bearpark, J. J. Heyd, E. N. Brothers, K. N. Kudin, 
 V. N. Staroverov, T. A. Keith, R. Kobayashi, J. Normand, 
 K. Raghavachari, A. P. Rendell, J. C. Burant, S. S. Iyengar, 
 J. Tomasi, M. Cossi, J. M. Millam, M. Klene, C. Adamo, R. Cammi, 
 J. W. Ochterski, R. L. Martin, K. Morokuma, O. Farkas, 
 J. B. Foresman, and D. J. Fox, Gaussian, Inc., Wallingford CT, 2019.
 
 ******************************************
 Gaussian 16:  ES64L-G16RevC.01  3-Jul-2019
                22-Feb-2024 
 ******************************************
 %chk=STO-3G_job1
 ---------------------------------------
 #p hf/sto-3g geom=connectivity Opt Freq
 ---------------------------------------
 1/18=20,19=15,38=1,57=2/1,3;
 2/9=110,12=2,17=6,18=5,40=1/2;
 3/6=3,11=9,25=1,30=1,71=1/1,2,3;
 4//1;
 5/5=2,38=5/2;
 6/7=2,8=2,9=2,10=2,28=1/1;
 7//1,2,3,16;
 1/18=20,19=15/3(2);
 2/9=110/2;
 99//99;
 2/9=110/2;
 3/6=3,11=9,25=1,30=1,71=1/1,2,3;
 4/5=5,16=3,69=1/1;
 5/5=2,38=5/2;
 7//1,2,3,16;
 1/18=20,19=15/3(-5);
 2/9=110/2;
 6/7=2,8=2,9=2,10=2,19=2,28=1/1;
 99/9=1/99;
 Leave Link    1 at Thu Feb 22 16:05:20 2024, MaxMem=           0 cpu:               0.0 elap:               0.0
 (Enter /apps/gaussian/g16-c01-avx2/g16/l101.exe)
 --------------------------------------------------------------------
 Ground state optimization and frequency calculation for formaldehyde
 --------------------------------------------------------------------
 Symbolic Z-matrix:
 Charge =  0 Multiplicity = 1
 C                    -0.52227  -0.40421   0. 
 H                     0.0129   -1.33076   0. 
 H                    -1.59227  -0.40441   0. 
 O                     0.10673   0.68571   0. 
 
 ITRead=  0  0  0  0
 MicOpt= -1 -1 -1 -1
 NAtoms=      4 NQM=        4 NQMF=       0 NMMI=      0 NMMIF=      0
                NMic=       0 NMicF=      0.
                    Isotopes and Nuclear Properties:
 (Nuclear quadrupole moments (NQMom) in fm**2, nuclear magnetic moments (NMagM)
  in nuclear magnetons)

  Atom         1           2           3           4
 IAtWgt=          12           1           1          16
 AtmWgt=  12.0000000   1.0078250   1.0078250  15.9949146
 NucSpn=           0           1           1           0
 AtZEff=  -0.0000000  -0.0000000  -0.0000000  -0.0000000
 NQMom=    0.0000000   0.0000000   0.0000000   0.0000000
 NMagM=    0.0000000   2.7928460   2.7928460   0.0000000
 AtZNuc=   6.0000000   1.0000000   1.0000000   8.0000000
 Leave Link  101 at Thu Feb 22 16:05:24 2024, MaxMem=   104857600 cpu:               0.1 elap:               0.0
 (Enter /apps/gaussian/g16-c01-avx2/g16/l103.exe)

 GradGradGradGradGradGradGradGradGradGradGradGradGradGradGradGradGradGrad
 Berny optimization.
 Initialization pass.
                           ----------------------------
                           !    Initial Parameters    !
                           ! (Angstroms and Degrees)  !
 --------------------------                            --------------------------
 ! Name  Definition              Value          Derivative Info.                !
 --------------------------------------------------------------------------------
 ! R1    R(1,2)                  1.07           estimate D2E/DX2                !
 ! R2    R(1,3)                  1.07           estimate D2E/DX2                !
 ! R3    R(1,4)                  1.2584         estimate D2E/DX2                !
 ! A1    A(2,1,3)              120.0            estimate D2E/DX2                !
 ! A2    A(2,1,4)              120.0            estimate D2E/DX2                !
 ! A3    A(3,1,4)              120.0            estimate D2E/DX2                !
 ! D1    D(2,1,4,3)            180.0            estimate D2E/DX2                !
 --------------------------------------------------------------------------------
 Trust Radius=3.00D-01 FncErr=1.00D-07 GrdErr=1.00D-07 EigMax=2.50D+02 EigMin=1.00D-04
 Number of steps in this run=     20 maximum allowed number of steps=    100.
 GradGradGradGradGradGradGradGradGradGradGradGradGradGradGradGradGradGrad

 Leave Link  103 at Thu Feb 22 16:05:31 2024, MaxMem=   104857600 cpu:               0.0 elap:               0.8
 (Enter /apps/gaussian/g16-c01-avx2/g16/l202.exe)
                          Input orientation:                          
 ---------------------------------------------------------------------
 Center     Atomic      Atomic             Coordinates (Angstroms)
 Number     Number       Type             X           Y           Z
 ---------------------------------------------------------------------
      1          6           0       -0.522268   -0.404213    0.000000
      2          1           0        0.012900   -1.330763    0.000000
      3          1           0       -1.592268   -0.404408    0.000000
      4          8           0        0.106734    0.685708    0.000000
 ---------------------------------------------------------------------
                    Distance matrix (angstroms):
                    1          2          3          4
     1  C    0.000000
     2  H    1.070000   0.000000
     3  H    1.070000   1.853294   0.000000
     4  O    1.258400   2.018653   2.018653   0.000000
 Stoichiometry    CH2O
 Framework group  C2V[C2(CO),SGV(H2)]
 Deg. of freedom     3
 Full point group                 C2V     NOp   4
 Largest Abelian subgroup         C2V     NOp   4
 Largest concise Abelian subgroup C2      NOp   2
                         Standard orientation:                         
 ---------------------------------------------------------------------
 Center     Atomic      Atomic             Coordinates (Angstroms)
 Number     Number       Type             X           Y           Z
 ---------------------------------------------------------------------
      1          6           0        0.000000   -0.000000   -0.562325
      2          1           0        0.000000   -0.926647   -1.097325
      3          1           0        0.000000    0.926647   -1.097325
      4          8           0        0.000000   -0.000000    0.696075
 ---------------------------------------------------------------------
 Rotational constants (GHZ):         291.9935432          36.5845887          32.5111827
 Leave Link  202 at Thu Feb 22 16:05:36 2024, MaxMem=   104857600 cpu:               0.0 elap:               0.0
 (Enter /apps/gaussian/g16-c01-avx2/g16/l301.exe)
 Standard basis: STO-3G (5D, 7F)
 Ernie: Thresh=  0.10000D-02 Tol=  0.10000D-05 Strict=F.
 There are     7 symmetry adapted cartesian basis functions of A1  symmetry.
 There are     0 symmetry adapted cartesian basis functions of A2  symmetry.
 There are     2 symmetry adapted cartesian basis functions of B1  symmetry.
 There are     3 symmetry adapted cartesian basis functions of B2  symmetry.
 There are     7 symmetry adapted basis functions of A1  symmetry.
 There are     0 symmetry adapted basis functions of A2  symmetry.
 There are     2 symmetry adapted basis functions of B1  symmetry.
 There are     3 symmetry adapted basis functions of B2  symmetry.
    12 basis functions,    36 primitive gaussians,    12 cartesian basis functions
     8 alpha electrons        8 beta electrons
       nuclear repulsion energy        30.5992945771 Hartrees.
 IExCor=    0 DFT=F Ex=HF Corr=None ExCW=0 ScaHFX=  1.000000
 ScaDFX=  1.000000  1.000000  1.000000  1.000000 ScalE2=  1.000000  1.000000
 IRadAn=      5 IRanWt=     -1 IRanGd=            0 ICorTp=0 IEmpDi=  4
 NAtoms=    4 NActive=    4 NUniq=    3 SFac= 1.78D+00 NAtFMM=   60 NAOKFM=F Big=F
 Integral buffers will be    131072 words long.
 Raffenetti 1 integral format.
 Two-electron integral symmetry is turned on.
 Leave Link  301 at Thu Feb 22 16:05:48 2024, MaxMem=   104857600 cpu:               0.0 elap:               2.1
 (Enter /apps/gaussian/g16-c01-avx2/g16/l302.exe)
 NPDir=0 NMtPBC=     1 NCelOv=     1 NCel=       1 NClECP=     1 NCelD=      1
         NCelK=      1 NCelE2=     1 NClLst=     1 CellRange=     0.0.
 One-electron integrals computed using PRISM.
 One-electron integral symmetry used in STVInt
 NBasis=    12 RedAO= T EigKep=  2.44D-01  NBF=     7     0     2     3
 NBsUse=    12 1.00D-06 EigRej= -1.00D+00 NBFU=     7     0     2     3
 Leave Link  302 at Thu Feb 22 16:05:50 2024, MaxMem=   104857600 cpu:               0.0 elap:               0.0
 (Enter /apps/gaussian/g16-c01-avx2/g16/l303.exe)
 DipDrv:  MaxL=1.
 Leave Link  303 at Thu Feb 22 16:05:51 2024, MaxMem=   104857600 cpu:               0.0 elap:               0.0
 (Enter /apps/gaussian/g16-c01-avx2/g16/l401.exe)
 ExpMin= 1.69D-01 ExpMax= 1.31D+02 ExpMxC= 1.31D+02 IAcc=3 IRadAn=         5 AccDes= 0.00D+00
 Harris functional with IExCor=  205 and IRadAn=       5 diagonalized for initial guess.
 HarFok:  IExCor=  205 AccDes= 0.00D+00 IRadAn=         5 IDoV= 1 UseB2=F ITyADJ=14
 ICtDFT=  3500011 ScaDFX=  1.000000  1.000000  1.000000  1.000000
 FoFCou: FMM=F IPFlag=           0 FMFlag=      100000 FMFlg1=           0
         NFxFlg=           0 DoJE=T BraDBF=F KetDBF=T FulRan=T
         wScrn=  0.000000 ICntrl=       500 IOpCl=  0 I1Cent=   200000004 NGrid=           0
         NMat0=    1 NMatS0=      1 NMatT0=    0 NMatD0=    1 NMtDS0=    0 NMtDT0=    0
 Petite list used in FoFCou.
 Harris En= -112.401412653967    
 JPrj=0 DoOrth=F DoCkMO=F.
 Initial guess orbital symmetries:
       Occupied  (A1) (A1) (A1) (A1) (B2) (A1) (B1) (B2)
       Virtual   (B1) (A1) (A1) (B2)
 The electronic state of the initial guess is 1-A1.
 Leave Link  401 at Thu Feb 22 16:05:53 2024, MaxMem=   104857600 cpu:               0.1 elap:               0.2
 (Enter /apps/gaussian/g16-c01-avx2/g16/l502.exe)
 Keep R1 ints in memory in symmetry-blocked form, NReq=807829.
 FoFCou: FMM=F IPFlag=           0 FMFlag=           0 FMFlg1=           0
         NFxFlg=           0 DoJE=F BraDBF=F KetDBF=F FulRan=T
         wScrn=  0.000000 ICntrl=       600 IOpCl=  0 I1Cent=           0 NGrid=           0
         NMat0=    1 NMatS0=     78 NMatT0=    0 NMatD0=    1 NMtDS0=    0 NMtDT0=    0
 Petite list used in FoFCou.
 Closed shell SCF:
 Using DIIS extrapolation, IDIIS=  1040.
 NGot=   104857600 LenX=   104854386 LenY=   104853504
 Requested convergence on RMS density matrix=1.00D-08 within 128 cycles.
 Requested convergence on MAX density matrix=1.00D-06.
 Requested convergence on             energy=1.00D-06.
 No special actions if energy rises.

 Cycle   1  Pass 1  IDiag  1:
 E= -112.331974443620    
 DIIS: error= 4.09D-02 at cycle   1 NSaved=   1.
 NSaved= 1 IEnMin= 1 EnMin= -112.331974443620     IErMin= 1 ErrMin= 4.09D-02
 ErrMax= 4.09D-02  0.00D+00 EMaxC= 1.00D-01 BMatC= 1.92D-02 BMatP= 1.92D-02
 IDIUse=3 WtCom= 5.91D-01 WtEn= 4.09D-01
 Coeff-Com:  0.100D+01
 Coeff-En:   0.100D+01
 Coeff:      0.100D+01
 Gap=     0.594 Goal=   None    Shift=    0.000
 GapD=    0.594 DampG=2.000 DampE=0.500 DampFc=1.0000 IDamp=-1.
 RMSDP=1.35D-02 MaxDP=6.94D-02              OVMax= 0.00D+00

 Cycle   2  Pass 1  IDiag  1:
 E= -112.347143835415     Delta-E=       -0.015169391795 Rises=F Damp=F
 DIIS: error= 9.69D-03 at cycle   2 NSaved=   2.
 NSaved= 2 IEnMin= 2 EnMin= -112.347143835415     IErMin= 2 ErrMin= 9.69D-03
 ErrMax= 9.69D-03  0.00D+00 EMaxC= 1.00D-01 BMatC= 1.63D-03 BMatP= 1.92D-02
 IDIUse=3 WtCom= 9.03D-01 WtEn= 9.69D-02
 Coeff-Com:  0.786D-01 0.921D+00
 Coeff-En:   0.000D+00 0.100D+01
 Coeff:      0.710D-01 0.929D+00
 Gap=     0.635 Goal=   None    Shift=    0.000
 RMSDP=5.03D-03 MaxDP=1.91D-02 DE=-1.52D-02 OVMax= 0.00D+00

 Cycle   3  Pass 1  IDiag  1:
 E= -112.348566929118     Delta-E=       -0.001423093703 Rises=F Damp=F
 DIIS: error= 6.61D-03 at cycle   3 NSaved=   3.
 NSaved= 3 IEnMin= 3 EnMin= -112.348566929118     IErMin= 3 ErrMin= 6.61D-03
 ErrMax= 6.61D-03  0.00D+00 EMaxC= 1.00D-01 BMatC= 2.88D-04 BMatP= 1.63D-03
 IDIUse=3 WtCom= 9.34D-01 WtEn= 6.61D-02
 Coeff-Com: -0.378D-01 0.264D+00 0.774D+00
 Coeff-En:   0.000D+00 0.000D+00 0.100D+01
 Coeff:     -0.353D-01 0.247D+00 0.789D+00
 Gap=     0.623 Goal=   None    Shift=    0.000
 RMSDP=1.96D-03 MaxDP=1.47D-02 DE=-1.42D-03 OVMax= 0.00D+00

 Cycle   4  Pass 1  IDiag  1:
 E= -112.349014968134     Delta-E=       -0.000448039015 Rises=F Damp=F
 DIIS: error= 1.24D-03 at cycle   4 NSaved=   4.
 NSaved= 4 IEnMin= 4 EnMin= -112.349014968134     IErMin= 4 ErrMin= 1.24D-03
 ErrMax= 1.24D-03  0.00D+00 EMaxC= 1.00D-01 BMatC= 2.37D-05 BMatP= 2.88D-04
 IDIUse=3 WtCom= 9.88D-01 WtEn= 1.24D-02
 Coeff-Com:  0.173D-01-0.214D+00-0.220D+00 0.142D+01
 Coeff-En:   0.000D+00 0.000D+00 0.000D+00 0.100D+01
 Coeff:      0.171D-01-0.212D+00-0.218D+00 0.141D+01
 Gap=     0.627 Goal=   None    Shift=    0.000
 RMSDP=8.65D-04 MaxDP=3.43D-03 DE=-4.48D-04 OVMax= 0.00D+00

 Cycle   5  Pass 1  IDiag  1:
 E= -112.349063487605     Delta-E=       -0.000048519472 Rises=F Damp=F
 DIIS: error= 2.74D-04 at cycle   5 NSaved=   5.
 NSaved= 5 IEnMin= 5 EnMin= -112.349063487605     IErMin= 5 ErrMin= 2.74D-04
 ErrMax= 2.74D-04  0.00D+00 EMaxC= 1.00D-01 BMatC= 1.51D-06 BMatP= 2.37D-05
 IDIUse=3 WtCom= 9.97D-01 WtEn= 2.74D-03
 Coeff-Com: -0.127D-01 0.167D+00 0.206D+00-0.134D+01 0.198D+01
 Coeff-En:   0.000D+00 0.000D+00 0.000D+00 0.000D+00 0.100D+01
 Coeff:     -0.127D-01 0.167D+00 0.206D+00-0.133D+01 0.197D+01
 Gap=     0.627 Goal=   None    Shift=    0.000
 RMSDP=3.46D-04 MaxDP=1.87D-03 DE=-4.85D-05 OVMax= 0.00D+00

 Cycle   6  Pass 1  IDiag  1:
 E= -112.349068049805     Delta-E=       -0.000004562199 Rises=F Damp=F
 DIIS: error= 2.18D-05 at cycle   6 NSaved=   6.
 NSaved= 6 IEnMin= 6 EnMin= -112.349068049805     IErMin= 6 ErrMin= 2.18D-05
 ErrMax= 2.18D-05  0.00D+00 EMaxC= 1.00D-01 BMatC= 8.43D-09 BMatP= 1.51D-06
 IDIUse=1 WtCom= 1.00D+00 WtEn= 0.00D+00
 Coeff-Com:  0.111D-02-0.155D-01-0.202D-01 0.141D+00-0.298D+00 0.119D+01
 Coeff:      0.111D-02-0.155D-01-0.202D-01 0.141D+00-0.298D+00 0.119D+01
 Gap=     0.627 Goal=   None    Shift=    0.000
 RMSDP=2.85D-05 MaxDP=1.41D-04 DE=-4.56D-06 OVMax= 0.00D+00

 Cycle   7  Pass 1  IDiag  1:
 E= -112.349068078831     Delta-E=       -0.000000029026 Rises=F Damp=F
 DIIS: error= 2.25D-06 at cycle   7 NSaved=   7.
 NSaved= 7 IEnMin= 7 EnMin= -112.349068078831     IErMin= 7 ErrMin= 2.25D-06
 ErrMax= 2.25D-06  0.00D+00 EMaxC= 1.00D-01 BMatC= 6.90D-11 BMatP= 8.43D-09
 IDIUse=1 WtCom= 1.00D+00 WtEn= 0.00D+00
 Coeff-Com: -0.121D-03 0.176D-02 0.258D-02-0.183D-01 0.445D-01-0.234D+00
 Coeff-Com:  0.120D+01
 Coeff:     -0.121D-03 0.176D-02 0.258D-02-0.183D-01 0.445D-01-0.234D+00
 Coeff:      0.120D+01
 Gap=     0.627 Goal=   None    Shift=    0.000
 RMSDP=1.17D-06 MaxDP=6.18D-06 DE=-2.90D-08 OVMax= 0.00D+00

 Cycle   8  Pass 1  IDiag  1:
 E= -112.349068078939     Delta-E=       -0.000000000108 Rises=F Damp=F
 DIIS: error= 2.18D-07 at cycle   8 NSaved=   8.
 NSaved= 8 IEnMin= 8 EnMin= -112.349068078939     IErMin= 8 ErrMin= 2.18D-07
 ErrMax= 2.18D-07  0.00D+00 EMaxC= 1.00D-01 BMatC= 5.86D-13 BMatP= 6.90D-11
 IDIUse=1 WtCom= 1.00D+00 WtEn= 0.00D+00
 Coeff-Com:  0.218D-05-0.404D-04-0.101D-03 0.717D-03-0.212D-02 0.148D-01
 Coeff-Com: -0.145D+00 0.113D+01
 Coeff:      0.218D-05-0.404D-04-0.101D-03 0.717D-03-0.212D-02 0.148D-01
 Coeff:     -0.145D+00 0.113D+01
 Gap=     0.627 Goal=   None    Shift=    0.000
 RMSDP=1.43D-07 MaxDP=8.96D-07 DE=-1.08D-10 OVMax= 0.00D+00

 Cycle   9  Pass 1  IDiag  1:
 E= -112.349068078940     Delta-E=       -0.000000000001 Rises=F Damp=F
 DIIS: error= 1.36D-08 at cycle   9 NSaved=   9.
 NSaved= 9 IEnMin= 9 EnMin= -112.349068078940     IErMin= 9 ErrMin= 1.36D-08
 ErrMax= 1.36D-08  0.00D+00 EMaxC= 1.00D-01 BMatC= 2.29D-15 BMatP= 5.86D-13
 IDIUse=1 WtCom= 1.00D+00 WtEn= 0.00D+00
 Coeff-Com: -0.464D-08 0.481D-06 0.643D-05-0.399D-04 0.119D-03-0.939D-03
 Coeff-Com:  0.138D-01-0.168D+00 0.116D+01
 Coeff:     -0.464D-08 0.481D-06 0.643D-05-0.399D-04 0.119D-03-0.939D-03
 Coeff:      0.138D-01-0.168D+00 0.116D+01
 Gap=     0.627 Goal=   None    Shift=    0.000
 RMSDP=8.74D-09 MaxDP=3.71D-08 DE=-1.02D-12 OVMax= 0.00D+00

 SCF Done:  E(RHF) =  -112.349068079     A.U. after    9 cycles
            NFock=  9  Conv=0.87D-08     -V/T= 2.0089
 KE= 1.113606294447D+02 PE=-3.262715610001D+02 EE= 7.196256889934D+01
 Leave Link  502 at Thu Feb 22 16:05:54 2024, MaxMem=   104857600 cpu:               0.0 elap:               0.1
 (Enter /apps/gaussian/g16-c01-avx2/g16/l601.exe)
 Copying SCF densities to generalized density rwf, IOpCl= 0 IROHF=0.

 **********************************************************************

            Population analysis using the SCF Density.

 **********************************************************************

 Orbital symmetries:
       Occupied  (A1) (A1) (A1) (A1) (B2) (A1) (B1) (B2)
       Virtual   (B1) (A1) (B2) (A1)
 The electronic state is 1-A1.
 Alpha  occ. eigenvalues --  -20.30297 -11.11402  -1.30945  -0.81755  -0.63744
 Alpha  occ. eigenvalues --   -0.53203  -0.41958  -0.35987
 Alpha virt. eigenvalues --    0.26746   0.65006   0.77957   0.84799
          Condensed to atoms (all electrons):
               1          2          3          4
     1  C    4.773807   0.381108   0.381108   0.424494
     2  H    0.381108   0.606304  -0.032570  -0.022619
     3  H    0.381108  -0.032570   0.606304  -0.022619
     4  O    0.424494  -0.022619  -0.022619   7.795783
 Mulliken charges:
               1
     1  C    0.039484
     2  H    0.067778
     3  H    0.067778
     4  O   -0.175039
 Sum of Mulliken charges =  -0.00000
 Mulliken charges with hydrogens summed into heavy atoms:
               1
     1  C    0.175039
     4  O   -0.175039
 Electronic spatial extent (au):  <R**2>=             59.2657
 Charge=             -0.0000 electrons
 Dipole moment (field-independent basis, Debye):
    X=              0.0000    Y=              0.0000    Z=             -1.5600  Tot=              1.5600
 Quadrupole moment (field-independent basis, Debye-Ang):
   XX=            -10.4395   YY=            -10.4568   ZZ=            -11.2711
   XY=              0.0000   XZ=             -0.0000   YZ=             -0.0000
 Traceless Quadrupole moment (field-independent basis, Debye-Ang):
   XX=              0.2830   YY=              0.2656   ZZ=             -0.5486
   XY=              0.0000   XZ=             -0.0000   YZ=             -0.0000
 Octapole moment (field-independent basis, Debye-Ang**2):
  XXX=             -0.0000  YYY=             -0.0000  ZZZ=              2.8401  XYY=             -0.0000
  XXY=             -0.0000  XXZ=              1.6594  XZZ=             -0.0000  YZZ=             -0.0000
  YYZ=              0.4007  XYZ=             -0.0000
 Hexadecapole moment (field-independent basis, Debye-Ang**3):
 XXXX=             -6.9036 YYYY=            -14.3163 ZZZZ=            -40.7069 XXXY=             -0.0000
 XXXZ=              0.0000 YYYX=             -0.0000 YYYZ=             -0.0000 ZZZX=              0.0000
 ZZZY=             -0.0000 XXYY=             -3.7851 XXZZ=             -7.8021 YYZZ=             -8.3900
 XXYZ=             -0.0000 YYXZ=             -0.0000 ZZXY=              0.0000
 N-N= 3.059929457712D+01 E-N=-3.262715609955D+02  KE= 1.113606294447D+02
 Symmetry A1   KE= 1.008855296254D+02
 Symmetry A2   KE= 0.000000000000D+00
 Symmetry B1   KE= 3.572761470853D+00
 Symmetry B2   KE= 6.902338348515D+00
 No NMR shielding tensors so no spin-rotation constants.
 Leave Link  601 at Thu Feb 22 16:05:55 2024, MaxMem=   104857600 cpu:               0.0 elap:               0.1
 (Enter /apps/gaussian/g16-c01-avx2/g16/l701.exe)
 ... and contract with generalized density number  0.
 Compute integral first derivatives.
 Leave Link  701 at Thu Feb 22 16:05:56 2024, MaxMem=   104857600 cpu:               0.0 elap:               0.0
 (Enter /apps/gaussian/g16-c01-avx2/g16/l702.exe)
 L702 exits ... SP integral derivatives will be done elsewhere.
 Leave Link  702 at Thu Feb 22 16:05:57 2024, MaxMem=   104857600 cpu:               0.0 elap:               0.0
 (Enter /apps/gaussian/g16-c01-avx2/g16/l703.exe)
 Integral derivatives from FoFJK, PRISM(SPDF).
 Compute integral first derivatives, UseDBF=F ICtDFT=           0.
 Calling FoFJK, ICntrl=      2127 FMM=F ISym2X=1 I1Cent= 0 IOpClX= 0 NMat=1 NMatS=1 NMatT=0.
 FoFJK:  IHMeth= 1 ICntrl=    2127 DoSepK=F KAlg= 0 I1Cent=           0 FoldK=F
 IRaf=         0 NMat=       1 IRICut=       1 DoRegI=T DoRafI=F ISym2E= 1 IDoP0=0 IntGTp=1.
 FoFCou: FMM=F IPFlag=           0 FMFlag=      100000 FMFlg1=         800
         NFxFlg=           0 DoJE=F BraDBF=F KetDBF=F FulRan=T
         wScrn=  0.000000 ICntrl=      2127 IOpCl=  0 I1Cent=           0 NGrid=           0
         NMat0=    1 NMatS0=      1 NMatT0=    0 NMatD0=    1 NMtDS0=    0 NMtDT0=    0
 Petite list used in FoFCou.
 Leave Link  703 at Thu Feb 22 16:05:58 2024, MaxMem=   104857600 cpu:               0.1 elap:               0.1
 (Enter /apps/gaussian/g16-c01-avx2/g16/l716.exe)
 Dipole        = 8.88811941D-18 2.83362929D-16-6.13746634D-01
 ***** Axes restored to original set *****
 -------------------------------------------------------------------
 Center     Atomic                   Forces (Hartrees/Bohr)
 Number     Number              X              Y              Z
 -------------------------------------------------------------------
      1        6           0.056166085    0.097323400   -0.000000000
      2        1           0.005263018   -0.026639237    0.000000000
      3        1          -0.025698575   -0.008771062    0.000000000
      4        8          -0.035730528   -0.061913100   -0.000000000
 -------------------------------------------------------------------
 Cartesian Forces:  Max     0.097323400 RMS     0.040011532
 Leave Link  716 at Thu Feb 22 16:05:59 2024, MaxMem=   104857600 cpu:               0.0 elap:               0.0
 (Enter /apps/gaussian/g16-c01-avx2/g16/l103.exe)

 GradGradGradGradGradGradGradGradGradGradGradGradGradGradGradGradGradGrad
 Berny optimization.
 FormGI is forming the generalized inverse of G from B-inverse, IUseBI=4.
 Internal  Forces:  Max     0.071483583 RMS     0.030799738
 Search for a local minimum.
 Step number   1 out of a maximum of   20
 All quantities printed in internal units (Hartrees-Bohrs-Radians)
 RMS Force = .30800D-01 SwitMx=.10000D-02 MixMth= 1
 Mixed Optimization -- RFO/linear search
 Second derivative matrix not updated -- first step.
 The second derivative matrix:
                          R1        R2        R3        A1        A2
           R1           0.37230
           R2           0.00000   0.37230
           R3           0.00000   0.00000   0.80209
           A1           0.00000   0.00000   0.00000   0.16000
           A2           0.00000   0.00000   0.00000   0.00000   0.16000
           A3           0.00000   0.00000   0.00000   0.00000   0.00000
           D1           0.00000   0.00000   0.00000   0.00000   0.00000
                          A3        D1
           A3           0.16000
           D1           0.00000   0.03565
 ITU=  0
     Eigenvalues ---    0.03565   0.16000   0.16000   0.37230   0.37230
     Eigenvalues ---    0.80209
 RFO step:  Lambda=-1.09569127D-02 EMin= 3.56487693D-02
 Linear search not attempted -- first point.
 Iteration  1 RMS(Cart)=  0.03261046 RMS(Int)=  0.00121200
 Iteration  2 RMS(Cart)=  0.00130066 RMS(Int)=  0.00000090
 Iteration  3 RMS(Cart)=  0.00000072 RMS(Int)=  0.00000000
 ITry= 1 IFail=0 DXMaxC= 6.04D-02 DCOld= 1.00D+10 DXMaxT= 3.00D-01 DXLimC= 3.00D+00 Rises=F
 ClnCor:  largest displacement from symmetrization is 3.11D-09 for atom     1.
 Variable       Old X    -DE/DX   Delta X   Delta X   Delta X     New X
                                 (Linear)    (Quad)   (Total)
    R1        2.02201   0.02570   0.00000   0.06706   0.06706   2.08906
    R2        2.02201   0.02570   0.00000   0.06706   0.06706   2.08906
    R3        2.37803  -0.07148   0.00000  -0.08792  -0.08792   2.29011
    A1        2.09440  -0.01182   0.00000  -0.06912  -0.06912   2.02527
    A2        2.09440   0.00591   0.00000   0.03456   0.03456   2.12896
    A3        2.09440   0.00591   0.00000   0.03456   0.03456   2.12896
    D1        3.14159   0.00000   0.00000   0.00000   0.00000   3.14159
         Item               Value     Threshold  Converged?
 Maximum Force            0.071484     0.000450     NO 
 RMS     Force            0.030800     0.000300     NO 
 Maximum Displacement     0.060360     0.001800     NO 
 RMS     Displacement     0.032485     0.001200     NO 
 Predicted change in Energy=-5.609341D-03
 Lowest energy point so far.  Saving SCF results.
 GradGradGradGradGradGradGradGradGradGradGradGradGradGradGradGradGradGrad

 Leave Link  103 at Thu Feb 22 16:05:59 2024, MaxMem=   104857600 cpu:               0.0 elap:               0.0
 (Enter /apps/gaussian/g16-c01-avx2/g16/l202.exe)
                          Input orientation:                          
 ---------------------------------------------------------------------
 Center     Atomic      Atomic             Coordinates (Angstroms)
 Number     Number       Type             X           Y           Z
 ---------------------------------------------------------------------
      1          6           0       -0.503835   -0.372272   -0.000000
      2          1           0        0.015673   -1.348084   -0.000000
      3          1           0       -1.608653   -0.410673   -0.000000
      4          8           0        0.101912    0.677352    0.000000
 ---------------------------------------------------------------------
                    Distance matrix (angstroms):
                    1          2          3          4
     1  C    0.000000
     2  H    1.105485   0.000000
     3  H    1.105485   1.875413   0.000000
     4  O    1.211874   2.027271   2.027271   0.000000
 Stoichiometry    CH2O
 Framework group  C2V[C2(CO),SGV(H2)]
 Deg. of freedom     3
 Full point group                 C2V     NOp   4
 RotChk:  IX=3 Diff= 7.26D-16
 Largest Abelian subgroup         C2V     NOp   4
 Largest concise Abelian subgroup C2      NOp   2
                         Standard orientation:                         
 ---------------------------------------------------------------------
 Center     Atomic      Atomic             Coordinates (Angstroms)
 Number     Number       Type             X           Y           Z
 ---------------------------------------------------------------------
      1          6           0        0.000000    0.000000   -0.532750
      2          1           0       -0.000000   -0.937706   -1.118245
      3          1           0        0.000000    0.937706   -1.118245
      4          8           0       -0.000000   -0.000000    0.679124
 ---------------------------------------------------------------------
 Rotational constants (GHZ):         285.1466102          38.4616098          33.8903557
 Leave Link  202 at Thu Feb 22 16:05:59 2024, MaxMem=   104857600 cpu:               0.0 elap:               0.0
 (Enter /apps/gaussian/g16-c01-avx2/g16/l301.exe)
 Standard basis: STO-3G (5D, 7F)
 Ernie: Thresh=  0.10000D-02 Tol=  0.10000D-05 Strict=F.
 There are     7 symmetry adapted cartesian basis functions of A1  symmetry.
 There are     0 symmetry adapted cartesian basis functions of A2  symmetry.
 There are     2 symmetry adapted cartesian basis functions of B1  symmetry.
 There are     3 symmetry adapted cartesian basis functions of B2  symmetry.
 There are     7 symmetry adapted basis functions of A1  symmetry.
 There are     0 symmetry adapted basis functions of A2  symmetry.
 There are     2 symmetry adapted basis functions of B1  symmetry.
 There are     3 symmetry adapted basis functions of B2  symmetry.
    12 basis functions,    36 primitive gaussians,    12 cartesian basis functions
     8 alpha electrons        8 beta electrons
       nuclear repulsion energy        31.1625214062 Hartrees.
 IExCor=    0 DFT=F Ex=HF Corr=None ExCW=0 ScaHFX=  1.000000
 ScaDFX=  1.000000  1.000000  1.000000  1.000000 ScalE2=  1.000000  1.000000
 IRadAn=      5 IRanWt=     -1 IRanGd=            0 ICorTp=0 IEmpDi=  4
 NAtoms=    4 NActive=    4 NUniq=    3 SFac= 1.78D+00 NAtFMM=   60 NAOKFM=F Big=F
 Integral buffers will be    131072 words long.
 Raffenetti 1 integral format.
 Two-electron integral symmetry is turned on.
 Leave Link  301 at Thu Feb 22 16:05:59 2024, MaxMem=   104857600 cpu:               0.0 elap:               0.0
 (Enter /apps/gaussian/g16-c01-avx2/g16/l302.exe)
 NPDir=0 NMtPBC=     1 NCelOv=     1 NCel=       1 NClECP=     1 NCelD=      1
         NCelK=      1 NCelE2=     1 NClLst=     1 CellRange=     0.0.
 One-electron integrals computed using PRISM.
 One-electron integral symmetry used in STVInt
 NBasis=    12 RedAO= T EigKep=  2.38D-01  NBF=     7     0     2     3
 NBsUse=    12 1.00D-06 EigRej= -1.00D+00 NBFU=     7     0     2     3
 Leave Link  302 at Thu Feb 22 16:06:00 2024, MaxMem=   104857600 cpu:               0.0 elap:               0.0
 (Enter /apps/gaussian/g16-c01-avx2/g16/l303.exe)
 DipDrv:  MaxL=1.
 Leave Link  303 at Thu Feb 22 16:06:00 2024, MaxMem=   104857600 cpu:               0.0 elap:               0.0
 (Enter /apps/gaussian/g16-c01-avx2/g16/l401.exe)
 Initial guess from the checkpoint file:  "STO-3G_job1.chk"
 B after Tr=     0.000000   -0.000000    0.000000
         Rot=    1.000000   -0.000000   -0.000000    0.000000 Ang=   0.00 deg.
 Guess basis will be translated and rotated to current coordinates.
 JPrj=2 DoOrth=T DoCkMO=T.
 Initial guess orbital symmetries:
       Occupied  (A1) (A1) (A1) (A1) (B2) (A1) (B1) (B2)
       Virtual   (B1) (A1) (B2) (A1)
 The electronic state of the initial guess is 1-A1.
 Generating alternative initial guess.
 ExpMin= 1.69D-01 ExpMax= 1.31D+02 ExpMxC= 1.31D+02 IAcc=3 IRadAn=         5 AccDes= 0.00D+00
 Harris functional with IExCor=  205 and IRadAn=       5 diagonalized for initial guess.
 HarFok:  IExCor=  205 AccDes= 0.00D+00 IRadAn=         5 IDoV= 1 UseB2=F ITyADJ=14
 ICtDFT=  3500011 ScaDFX=  1.000000  1.000000  1.000000  1.000000
 FoFCou: FMM=F IPFlag=           0 FMFlag=      100000 FMFlg1=           0
         NFxFlg=           0 DoJE=T BraDBF=F KetDBF=T FulRan=T
         wScrn=  0.000000 ICntrl=       500 IOpCl=  0 I1Cent=   200000004 NGrid=           0
         NMat0=    1 NMatS0=      1 NMatT0=    0 NMatD0=    1 NMtDS0=    0 NMtDT0=    0
 Petite list used in FoFCou.
 Harris En= -112.402666849939    
 Leave Link  401 at Thu Feb 22 16:06:00 2024, MaxMem=   104857600 cpu:               0.1 elap:               0.2
 (Enter /apps/gaussian/g16-c01-avx2/g16/l502.exe)
 Keep R1 ints in memory in symmetry-blocked form, NReq=807829.
 FoFCou: FMM=F IPFlag=           0 FMFlag=           0 FMFlg1=           0
         NFxFlg=           0 DoJE=F BraDBF=F KetDBF=F FulRan=T
         wScrn=  0.000000 ICntrl=       600 IOpCl=  0 I1Cent=           0 NGrid=           0
         NMat0=    1 NMatS0=     78 NMatT0=    0 NMatD0=    1 NMtDS0=    0 NMtDT0=    0
 Petite list used in FoFCou.
 Closed shell SCF:
 Using DIIS extrapolation, IDIIS=  1040.
 NGot=   104857600 LenX=   104854386 LenY=   104853504
 Requested convergence on RMS density matrix=1.00D-08 within 128 cycles.
 Requested convergence on MAX density matrix=1.00D-06.
 Requested convergence on             energy=1.00D-06.
 No special actions if energy rises.

 Cycle   1  Pass 1  IDiag  1:
 E= -112.353199491863    
 DIIS: error= 6.41D-03 at cycle   1 NSaved=   1.
 NSaved= 1 IEnMin= 1 EnMin= -112.353199491863     IErMin= 1 ErrMin= 6.41D-03
 ErrMax= 6.41D-03  0.00D+00 EMaxC= 1.00D-01 BMatC= 6.53D-04 BMatP= 6.53D-04
 IDIUse=3 WtCom= 9.36D-01 WtEn= 6.41D-02
 Coeff-Com:  0.100D+01
 Coeff-En:   0.100D+01
 Coeff:      0.100D+01
 Gap=     0.646 Goal=   None    Shift=    0.000
 GapD=    0.646 DampG=2.000 DampE=1.000 DampFc=2.0000 IDamp=-1.
 RMSDP=3.45D-03 MaxDP=1.27D-02              OVMax= 0.00D+00

 Cycle   2  Pass 1  IDiag  1:
 E= -112.354053516171     Delta-E=       -0.000854024307 Rises=F Damp=F
 DIIS: error= 2.85D-03 at cycle   2 NSaved=   2.
 NSaved= 2 IEnMin= 2 EnMin= -112.354053516171     IErMin= 2 ErrMin= 2.85D-03
 ErrMax= 2.85D-03  0.00D+00 EMaxC= 1.00D-01 BMatC= 6.25D-05 BMatP= 6.53D-04
 IDIUse=3 WtCom= 9.71D-01 WtEn= 2.85D-02
 Coeff-Com: -0.510D-01 0.105D+01
 Coeff-En:   0.000D+00 0.100D+01
 Coeff:     -0.496D-01 0.105D+01
 Gap=     0.638 Goal=   None    Shift=    0.000
 RMSDP=1.30D-03 MaxDP=6.22D-03 DE=-8.54D-04 OVMax= 0.00D+00

 Cycle   3  Pass 1  IDiag  1:
 E= -112.354149131214     Delta-E=       -0.000095615043 Rises=F Damp=F
 DIIS: error= 1.06D-03 at cycle   3 NSaved=   3.
 NSaved= 3 IEnMin= 3 EnMin= -112.354149131214     IErMin= 3 ErrMin= 1.06D-03
 ErrMax= 1.06D-03  0.00D+00 EMaxC= 1.00D-01 BMatC= 1.41D-05 BMatP= 6.25D-05
 IDIUse=3 WtCom= 9.89D-01 WtEn= 1.06D-02
 Coeff-Com: -0.104D+00 0.281D+00 0.823D+00
 Coeff-En:   0.000D+00 0.000D+00 0.100D+01
 Coeff:     -0.103D+00 0.278D+00 0.825D+00
 Gap=     0.638 Goal=   None    Shift=    0.000
 RMSDP=4.75D-04 MaxDP=2.21D-03 DE=-9.56D-05 OVMax= 0.00D+00

 Cycle   4  Pass 1  IDiag  1:
 E= -112.354168908576     Delta-E=       -0.000019777362 Rises=F Damp=F
 DIIS: error= 2.22D-04 at cycle   4 NSaved=   4.
 NSaved= 4 IEnMin= 4 EnMin= -112.354168908576     IErMin= 4 ErrMin= 2.22D-04
 ErrMax= 2.22D-04  0.00D+00 EMaxC= 1.00D-01 BMatC= 3.50D-07 BMatP= 1.41D-05
 IDIUse=3 WtCom= 9.98D-01 WtEn= 2.22D-03
 Coeff-Com:  0.111D-01-0.102D+00-0.689D-01 0.116D+01
 Coeff-En:   0.000D+00 0.000D+00 0.000D+00 0.100D+01
 Coeff:      0.111D-01-0.102D+00-0.687D-01 0.116D+01
 Gap=     0.638 Goal=   None    Shift=    0.000
 RMSDP=1.28D-04 MaxDP=6.13D-04 DE=-1.98D-05 OVMax= 0.00D+00

 Cycle   5  Pass 1  IDiag  1:
 E= -112.354169632001     Delta-E=       -0.000000723425 Rises=F Damp=F
 DIIS: error= 8.47D-06 at cycle   5 NSaved=   5.
 NSaved= 5 IEnMin= 5 EnMin= -112.354169632001     IErMin= 5 ErrMin= 8.47D-06
 ErrMax= 8.47D-06  0.00D+00 EMaxC= 1.00D-01 BMatC= 1.26D-09 BMatP= 3.50D-07
 IDIUse=1 WtCom= 1.00D+00 WtEn= 0.00D+00
 Coeff-Com: -0.212D-02 0.217D-01 0.170D-01-0.276D+00 0.124D+01
 Coeff:     -0.212D-02 0.217D-01 0.170D-01-0.276D+00 0.124D+01
 Gap=     0.638 Goal=   None    Shift=    0.000
 RMSDP=5.66D-06 MaxDP=2.21D-05 DE=-7.23D-07 OVMax= 0.00D+00

 Cycle   6  Pass 1  IDiag  1:
 E= -112.354169634395     Delta-E=       -0.000000002394 Rises=F Damp=F
 DIIS: error= 2.09D-06 at cycle   6 NSaved=   6.
 NSaved= 6 IEnMin= 6 EnMin= -112.354169634395     IErMin= 6 ErrMin= 2.09D-06
 ErrMax= 2.09D-06  0.00D+00 EMaxC= 1.00D-01 BMatC= 9.69D-11 BMatP= 1.26D-09
 IDIUse=1 WtCom= 1.00D+00 WtEn= 0.00D+00
 Coeff-Com:  0.108D-02-0.116D-01-0.681D-02 0.141D+00-0.717D+00 0.159D+01
 Coeff:      0.108D-02-0.116D-01-0.681D-02 0.141D+00-0.717D+00 0.159D+01
 Gap=     0.638 Goal=   None    Shift=    0.000
 RMSDP=2.03D-06 MaxDP=9.69D-06 DE=-2.39D-09 OVMax= 0.00D+00

 Cycle   7  Pass 1  IDiag  1:
 E= -112.354169634645     Delta-E=       -0.000000000250 Rises=F Damp=F
 DIIS: error= 5.87D-07 at cycle   7 NSaved=   7.
 NSaved= 7 IEnMin= 7 EnMin= -112.354169634645     IErMin= 7 ErrMin= 5.87D-07
 ErrMax= 5.87D-07  0.00D+00 EMaxC= 1.00D-01 BMatC= 5.98D-12 BMatP= 9.69D-11
 IDIUse=1 WtCom= 1.00D+00 WtEn= 0.00D+00
 Coeff-Com: -0.173D-03 0.189D-02 0.114D-02-0.229D-01 0.129D+00-0.598D+00
 Coeff-Com:  0.149D+01
 Coeff:     -0.173D-03 0.189D-02 0.114D-02-0.229D-01 0.129D+00-0.598D+00
 Coeff:      0.149D+01
 Gap=     0.638 Goal=   None    Shift=    0.000
 RMSDP=7.07D-07 MaxDP=3.52D-06 DE=-2.50D-10 OVMax= 0.00D+00

 Cycle   8  Pass 1  IDiag  1:
 E= -112.354169634663     Delta-E=       -0.000000000018 Rises=F Damp=F
 DIIS: error= 1.73D-08 at cycle   8 NSaved=   8.
 NSaved= 8 IEnMin= 8 EnMin= -112.354169634663     IErMin= 8 ErrMin= 1.73D-08
 ErrMax= 1.73D-08  0.00D+00 EMaxC= 1.00D-01 BMatC= 5.83D-15 BMatP= 5.98D-12
 IDIUse=1 WtCom= 1.00D+00 WtEn= 0.00D+00
 Coeff-Com:  0.234D-04-0.260D-03-0.148D-03 0.310D-02-0.181D-01 0.892D-01
 Coeff-Com: -0.237D+00 0.116D+01
 Coeff:      0.234D-04-0.260D-03-0.148D-03 0.310D-02-0.181D-01 0.892D-01
 Coeff:     -0.237D+00 0.116D+01
 Gap=     0.638 Goal=   None    Shift=    0.000
 RMSDP=1.26D-08 MaxDP=5.65D-08 DE=-1.81D-11 OVMax= 0.00D+00

 Cycle   9  Pass 1  IDiag  1:
 E= -112.354169634663     Delta-E=       -0.000000000000 Rises=F Damp=F
 DIIS: error= 3.15D-09 at cycle   9 NSaved=   9.
 NSaved= 9 IEnMin= 9 EnMin= -112.354169634663     IErMin= 9 ErrMin= 3.15D-09
 ErrMax= 3.15D-09  0.00D+00 EMaxC= 1.00D-01 BMatC= 7.40D-17 BMatP= 5.83D-15
 IDIUse=1 WtCom= 1.00D+00 WtEn= 0.00D+00
 Coeff-Com: -0.117D-05 0.137D-04 0.635D-05-0.155D-03 0.983D-03-0.515D-02
 Coeff-Com:  0.150D-01-0.164D+00 0.115D+01
 Coeff:     -0.117D-05 0.137D-04 0.635D-05-0.155D-03 0.983D-03-0.515D-02
 Coeff:      0.150D-01-0.164D+00 0.115D+01
 Gap=     0.638 Goal=   None    Shift=    0.000
 RMSDP=1.31D-09 MaxDP=6.99D-09 DE=-5.68D-14 OVMax= 0.00D+00

 SCF Done:  E(RHF) =  -112.354169635     A.U. after    9 cycles
            NFock=  9  Conv=0.13D-08     -V/T= 2.0089
 KE= 1.113661623448D+02 PE=-3.272753208029D+02 EE= 7.239246741724D+01
 Leave Link  502 at Thu Feb 22 16:06:00 2024, MaxMem=   104857600 cpu:               0.1 elap:               0.0
 (Enter /apps/gaussian/g16-c01-avx2/g16/l701.exe)
 ... and contract with generalized density number  0.
 Compute integral first derivatives.
 Leave Link  701 at Thu Feb 22 16:06:00 2024, MaxMem=   104857600 cpu:               0.0 elap:               0.0
 (Enter /apps/gaussian/g16-c01-avx2/g16/l702.exe)
 L702 exits ... SP integral derivatives will be done elsewhere.
 Leave Link  702 at Thu Feb 22 16:06:00 2024, MaxMem=   104857600 cpu:               0.0 elap:               0.0
 (Enter /apps/gaussian/g16-c01-avx2/g16/l703.exe)
 Integral derivatives from FoFJK, PRISM(SPDF).
 Compute integral first derivatives, UseDBF=F ICtDFT=           0.
 Calling FoFJK, ICntrl=      2127 FMM=F ISym2X=1 I1Cent= 0 IOpClX= 0 NMat=1 NMatS=1 NMatT=0.
 FoFJK:  IHMeth= 1 ICntrl=    2127 DoSepK=F KAlg= 0 I1Cent=           0 FoldK=F
 IRaf=         0 NMat=       1 IRICut=       1 DoRegI=T DoRafI=F ISym2E= 1 IDoP0=0 IntGTp=1.
 FoFCou: FMM=F IPFlag=           0 FMFlag=      100000 FMFlg1=         800
         NFxFlg=           0 DoJE=F BraDBF=F KetDBF=F FulRan=T
         wScrn=  0.000000 ICntrl=      2127 IOpCl=  0 I1Cent=           0 NGrid=           0
         NMat0=    1 NMatS0=      1 NMatT0=    0 NMatD0=    1 NMtDS0=    0 NMtDT0=    0
 Petite list used in FoFCou.
 Leave Link  703 at Thu Feb 22 16:06:00 2024, MaxMem=   104857600 cpu:               0.1 elap:               0.1
 (Enter /apps/gaussian/g16-c01-avx2/g16/l716.exe)
 Dipole        = 6.86766695D-18-7.84876040D-16-6.01345992D-01
 ***** Axes restored to original set *****
 -------------------------------------------------------------------
 Center     Atomic                   Forces (Hartrees/Bohr)
 Number     Number              X              Y              Z
 -------------------------------------------------------------------
      1        6          -0.004670501   -0.008092945   -0.000000000
      2        1          -0.004686911    0.001283763    0.000000000
      3        1           0.003456470   -0.003415845    0.000000000
      4        8           0.005900942    0.010225027   -0.000000000
 -------------------------------------------------------------------
 Cartesian Forces:  Max     0.010225027 RMS     0.004777656
 Leave Link  716 at Thu Feb 22 16:06:00 2024, MaxMem=   104857600 cpu:               0.0 elap:               0.0
 (Enter /apps/gaussian/g16-c01-avx2/g16/l103.exe)

 GradGradGradGradGradGradGradGradGradGradGradGradGradGradGradGradGradGrad
 Berny optimization.
 Using GEDIIS/GDIIS optimizer.
 FormGI is forming the generalized inverse of G from B-inverse, IUseBI=4.
 Internal  Forces:  Max     0.011805605 RMS     0.005317896
 Search for a local minimum.
 Step number   2 out of a maximum of   20
 All quantities printed in internal units (Hartrees-Bohrs-Radians)
 RMS Force = .53179D-02 SwitMx=.10000D-02 MixMth= 1
 Mixed Optimization -- RFO/linear search
 Update second derivatives using D2CorX and points    1    2
 DE= -5.10D-03 DEPred=-5.61D-03 R= 9.09D-01
 TightC=F SS=  1.41D+00  RLast= 1.55D-01 DXNew= 5.0454D-01 4.6370D-01
 Trust test= 9.09D-01 RLast= 1.55D-01 DXMaxT set to 4.64D-01
 The second derivative matrix:
                          R1        R2        R3        A1        A2
           R1           0.38468
           R2           0.01238   0.38468
           R3          -0.03807  -0.03807   0.91849
           A1           0.00904   0.00904  -0.02479   0.15255
           A2          -0.00452  -0.00452   0.01240   0.00373   0.15814
           A3          -0.00452  -0.00452   0.01240   0.00373  -0.00186
           D1           0.00000   0.00000  -0.00000  -0.00000   0.00000
                          A3        D1
           A3           0.15814
           D1           0.00000   0.03565
 ITU=  1  0
 Use linear search instead of GDIIS.
     Eigenvalues ---    0.03565   0.14688   0.16000   0.37230   0.39220
     Eigenvalues ---    0.92529
 RFO step:  Lambda=-3.30874717D-04 EMin= 3.56487693D-02
 Quartic linear search produced a step of -0.07770.
 Iteration  1 RMS(Cart)=  0.01676254 RMS(Int)=  0.00014311
 Iteration  2 RMS(Cart)=  0.00012255 RMS(Int)=  0.00000000
 Iteration  3 RMS(Cart)=  0.00000000 RMS(Int)=  0.00000000
 ITry= 1 IFail=0 DXMaxC= 2.70D-02 DCOld= 1.00D+10 DXMaxT= 4.64D-01 DXLimC= 3.00D+00 Rises=F
 ClnCor:  largest displacement from symmetrization is 3.47D-09 for atom     1.
 Variable       Old X    -DE/DX   Delta X   Delta X   Delta X     New X
                                 (Linear)    (Quad)   (Total)
    R1        2.08906  -0.00334  -0.00521  -0.00074  -0.00595   2.08312
    R2        2.08906  -0.00334  -0.00521  -0.00074  -0.00595   2.08312
    R3        2.29011   0.01181   0.00683   0.00406   0.01090   2.30101
    A1        2.02527  -0.00492   0.00537  -0.03675  -0.03138   1.99389
    A2        2.12896   0.00246  -0.00269   0.01838   0.01569   2.14465
    A3        2.12896   0.00246  -0.00269   0.01838   0.01569   2.14465
    D1        3.14159   0.00000   0.00000   0.00000   0.00000   3.14159
         Item               Value     Threshold  Converged?
 Maximum Force            0.011806     0.000450     NO 
 RMS     Force            0.005318     0.000300     NO 
 Maximum Displacement     0.027020     0.001800     NO 
 RMS     Displacement     0.016783     0.001200     NO 
 Predicted change in Energy=-1.987865D-04
 Lowest energy point so far.  Saving SCF results.
 GradGradGradGradGradGradGradGradGradGradGradGradGradGradGradGradGradGrad

 Leave Link  103 at Thu Feb 22 16:06:00 2024, MaxMem=   104857600 cpu:               0.0 elap:               0.0
 (Enter /apps/gaussian/g16-c01-avx2/g16/l202.exe)
                          Input orientation:                          
 ---------------------------------------------------------------------
 Center     Atomic      Atomic             Coordinates (Angstroms)
 Number     Number       Type             X           Y           Z
 ---------------------------------------------------------------------
      1          6           0       -0.501323   -0.367919    0.000000
      2          1           0        0.001375   -1.348963    0.000000
      3          1           0       -1.602260   -0.423493   -0.000000
      4          8           0        0.107306    0.686699   -0.000000
 ---------------------------------------------------------------------
                    Distance matrix (angstroms):
                    1          2          3          4
     1  C    0.000000
     2  H    1.102339   0.000000
     3  H    1.102339   1.851523   0.000000
     4  O    1.217640   2.038416   2.038416   0.000000
 Stoichiometry    CH2O
 Framework group  C2V[C2(CO),SGV(H2)]
 Deg. of freedom     3
 Full point group                 C2V     NOp   4
 RotChk:  IX=3 Diff= 5.76D-16
 Largest Abelian subgroup         C2V     NOp   4
 Largest concise Abelian subgroup C2      NOp   2
                         Standard orientation:                         
 ---------------------------------------------------------------------
 Center     Atomic      Atomic             Coordinates (Angstroms)
 Number     Number       Type             X           Y           Z
 ---------------------------------------------------------------------
      1          6           0        0.000000    0.000000   -0.534017
      2          1           0        0.000000   -0.925762   -1.132445
      3          1           0        0.000000    0.925762   -1.132445
      4          8           0       -0.000000   -0.000000    0.683624
 ---------------------------------------------------------------------
 Rotational constants (GHZ):         292.5523627          37.9574464          33.5982181
 Leave Link  202 at Thu Feb 22 16:06:00 2024, MaxMem=   104857600 cpu:               0.0 elap:               0.0
 (Enter /apps/gaussian/g16-c01-avx2/g16/l301.exe)
 Standard basis: STO-3G (5D, 7F)
 Ernie: Thresh=  0.10000D-02 Tol=  0.10000D-05 Strict=F.
 There are     7 symmetry adapted cartesian basis functions of A1  symmetry.
 There are     0 symmetry adapted cartesian basis functions of A2  symmetry.
 There are     2 symmetry adapted cartesian basis functions of B1  symmetry.
 There are     3 symmetry adapted cartesian basis functions of B2  symmetry.
 There are     7 symmetry adapted basis functions of A1  symmetry.
 There are     0 symmetry adapted basis functions of A2  symmetry.
 There are     2 symmetry adapted basis functions of B1  symmetry.
 There are     3 symmetry adapted basis functions of B2  symmetry.
    12 basis functions,    36 primitive gaussians,    12 cartesian basis functions
     8 alpha electrons        8 beta electrons
       nuclear repulsion energy        31.0604687890 Hartrees.
 IExCor=    0 DFT=F Ex=HF Corr=None ExCW=0 ScaHFX=  1.000000
 ScaDFX=  1.000000  1.000000  1.000000  1.000000 ScalE2=  1.000000  1.000000
 IRadAn=      5 IRanWt=     -1 IRanGd=            0 ICorTp=0 IEmpDi=  4
 NAtoms=    4 NActive=    4 NUniq=    3 SFac= 1.78D+00 NAtFMM=   60 NAOKFM=F Big=F
 Integral buffers will be    131072 words long.
 Raffenetti 1 integral format.
 Two-electron integral symmetry is turned on.
 Leave Link  301 at Thu Feb 22 16:06:00 2024, MaxMem=   104857600 cpu:               0.0 elap:               0.0
 (Enter /apps/gaussian/g16-c01-avx2/g16/l302.exe)
 NPDir=0 NMtPBC=     1 NCelOv=     1 NCel=       1 NClECP=     1 NCelD=      1
         NCelK=      1 NCelE2=     1 NClLst=     1 CellRange=     0.0.
 One-electron integrals computed using PRISM.
 One-electron integral symmetry used in STVInt
 NBasis=    12 RedAO= T EigKep=  2.41D-01  NBF=     7     0     2     3
 NBsUse=    12 1.00D-06 EigRej= -1.00D+00 NBFU=     7     0     2     3
 Leave Link  302 at Thu Feb 22 16:06:00 2024, MaxMem=   104857600 cpu:               0.0 elap:               0.0
 (Enter /apps/gaussian/g16-c01-avx2/g16/l303.exe)
 DipDrv:  MaxL=1.
 Leave Link  303 at Thu Feb 22 16:06:00 2024, MaxMem=   104857600 cpu:               0.0 elap:               0.0
 (Enter /apps/gaussian/g16-c01-avx2/g16/l401.exe)
 Initial guess from the checkpoint file:  "STO-3G_job1.chk"
 B after Tr=    -0.000000    0.000000   -0.000000
         Rot=    1.000000   -0.000000   -0.000000   -0.000000 Ang=   0.00 deg.
 Guess basis will be translated and rotated to current coordinates.
 JPrj=2 DoOrth=T DoCkMO=T.
 Initial guess orbital symmetries:
       Occupied  (A1) (A1) (A1) (A1) (B2) (A1) (B1) (B2)
       Virtual   (B1) (A1) (B2) (A1)
 The electronic state of the initial guess is 1-A1.
 Generating alternative initial guess.
 ExpMin= 1.69D-01 ExpMax= 1.31D+02 ExpMxC= 1.31D+02 IAcc=3 IRadAn=         5 AccDes= 0.00D+00
 Harris functional with IExCor=  205 and IRadAn=       5 diagonalized for initial guess.
 HarFok:  IExCor=  205 AccDes= 0.00D+00 IRadAn=         5 IDoV= 1 UseB2=F ITyADJ=14
 ICtDFT=  3500011 ScaDFX=  1.000000  1.000000  1.000000  1.000000
 FoFCou: FMM=F IPFlag=           0 FMFlag=      100000 FMFlg1=           0
         NFxFlg=           0 DoJE=T BraDBF=F KetDBF=T FulRan=T
         wScrn=  0.000000 ICntrl=       500 IOpCl=  0 I1Cent=   200000004 NGrid=           0
         NMat0=    1 NMatS0=      1 NMatT0=    0 NMatD0=    1 NMtDS0=    0 NMtDT0=    0
 Petite list used in FoFCou.
 Harris En= -112.403313249822    
 Leave Link  401 at Thu Feb 22 16:06:00 2024, MaxMem=   104857600 cpu:               0.1 elap:               0.1
 (Enter /apps/gaussian/g16-c01-avx2/g16/l502.exe)
 Keep R1 ints in memory in symmetry-blocked form, NReq=807829.
 FoFCou: FMM=F IPFlag=           0 FMFlag=           0 FMFlg1=           0
         NFxFlg=           0 DoJE=F BraDBF=F KetDBF=F FulRan=T
         wScrn=  0.000000 ICntrl=       600 IOpCl=  0 I1Cent=           0 NGrid=           0
         NMat0=    1 NMatS0=     78 NMatT0=    0 NMatD0=    1 NMtDS0=    0 NMtDT0=    0
 Petite list used in FoFCou.
 Closed shell SCF:
 Using DIIS extrapolation, IDIIS=  1040.
 NGot=   104857600 LenX=   104854386 LenY=   104853504
 Requested convergence on RMS density matrix=1.00D-08 within 128 cycles.
 Requested convergence on MAX density matrix=1.00D-06.
 Requested convergence on             energy=1.00D-06.
 No special actions if energy rises.

 Cycle   1  Pass 1  IDiag  1:
 E= -112.354328656454    
 DIIS: error= 1.06D-03 at cycle   1 NSaved=   1.
 NSaved= 1 IEnMin= 1 EnMin= -112.354328656454     IErMin= 1 ErrMin= 1.06D-03
 ErrMax= 1.06D-03  0.00D+00 EMaxC= 1.00D-01 BMatC= 1.05D-05 BMatP= 1.05D-05
 IDIUse=3 WtCom= 9.89D-01 WtEn= 1.06D-02
 Coeff-Com:  0.100D+01
 Coeff-En:   0.100D+01
 Coeff:      0.100D+01
 Gap=     0.636 Goal=   None    Shift=    0.000
 GapD=    0.636 DampG=2.000 DampE=1.000 DampFc=2.0000 IDamp=-1.
 RMSDP=3.65D-04 MaxDP=1.90D-03              OVMax= 0.00D+00

 Cycle   2  Pass 1  IDiag  1:
 E= -112.354338016601     Delta-E=       -0.000009360146 Rises=F Damp=F
 DIIS: error= 2.97D-04 at cycle   2 NSaved=   2.
 NSaved= 2 IEnMin= 2 EnMin= -112.354338016601     IErMin= 2 ErrMin= 2.97D-04
 ErrMax= 2.97D-04  0.00D+00 EMaxC= 1.00D-01 BMatC= 7.61D-07 BMatP= 1.05D-05
 IDIUse=3 WtCom= 9.97D-01 WtEn= 2.97D-03
 Coeff-Com: -0.450D-01 0.105D+01
 Coeff-En:   0.000D+00 0.100D+01
 Coeff:     -0.449D-01 0.104D+01
 Gap=     0.636 Goal=   None    Shift=    0.000
 RMSDP=1.48D-04 MaxDP=8.87D-04 DE=-9.36D-06 OVMax= 0.00D+00

 Cycle   3  Pass 1  IDiag  1:
 E= -112.354339663592     Delta-E=       -0.000001646991 Rises=F Damp=F
 DIIS: error= 1.51D-04 at cycle   3 NSaved=   3.
 NSaved= 3 IEnMin= 3 EnMin= -112.354339663592     IErMin= 3 ErrMin= 1.51D-04
 ErrMax= 1.51D-04  0.00D+00 EMaxC= 1.00D-01 BMatC= 3.61D-07 BMatP= 7.61D-07
 IDIUse=3 WtCom= 9.98D-01 WtEn= 1.51D-03
 Coeff-Com: -0.101D+00 0.346D+00 0.755D+00
 Coeff-En:   0.000D+00 0.000D+00 0.100D+01
 Coeff:     -0.101D+00 0.346D+00 0.755D+00
 Gap=     0.636 Goal=   None    Shift=    0.000
 RMSDP=6.74D-05 MaxDP=4.07D-04 DE=-1.65D-06 OVMax= 0.00D+00

 Cycle   4  Pass 1  IDiag  1:
 E= -112.354340125719     Delta-E=       -0.000000462128 Rises=F Damp=F
 DIIS: error= 4.67D-05 at cycle   4 NSaved=   4.
 NSaved= 4 IEnMin= 4 EnMin= -112.354340125719     IErMin= 4 ErrMin= 4.67D-05
 ErrMax= 4.67D-05  0.00D+00 EMaxC= 1.00D-01 BMatC= 3.64D-08 BMatP= 3.61D-07
 IDIUse=1 WtCom= 1.00D+00 WtEn= 0.00D+00
 Coeff-Com:  0.216D-01-0.203D+00-0.429D+00 0.161D+01
 Coeff:      0.216D-01-0.203D+00-0.429D+00 0.161D+01
 Gap=     0.636 Goal=   None    Shift=    0.000
 RMSDP=5.23D-05 MaxDP=2.71D-04 DE=-4.62D-07 OVMax= 0.00D+00

 Cycle   5  Pass 1  IDiag  1:
 E= -112.354340250062     Delta-E=       -0.000000124343 Rises=F Damp=F
 DIIS: error= 1.21D-05 at cycle   5 NSaved=   5.
 NSaved= 5 IEnMin= 5 EnMin= -112.354340250062     IErMin= 5 ErrMin= 1.21D-05
 ErrMax= 1.21D-05  0.00D+00 EMaxC= 1.00D-01 BMatC= 2.21D-09 BMatP= 3.64D-08
 IDIUse=1 WtCom= 1.00D+00 WtEn= 0.00D+00
 Coeff-Com: -0.795D-02 0.114D+00 0.122D+00-0.811D+00 0.158D+01
 Coeff:     -0.795D-02 0.114D+00 0.122D+00-0.811D+00 0.158D+01
 Gap=     0.636 Goal=   None    Shift=    0.000
 RMSDP=1.12D-05 MaxDP=5.07D-05 DE=-1.24D-07 OVMax= 0.00D+00

 Cycle   6  Pass 1  IDiag  1:
 E= -112.354340255808     Delta-E=       -0.000000005745 Rises=F Damp=F
 DIIS: error= 1.21D-06 at cycle   6 NSaved=   6.
 NSaved= 6 IEnMin= 6 EnMin= -112.354340255808     IErMin= 6 ErrMin= 1.21D-06
 ErrMax= 1.21D-06  0.00D+00 EMaxC= 1.00D-01 BMatC= 1.39D-11 BMatP= 2.21D-09
 IDIUse=1 WtCom= 1.00D+00 WtEn= 0.00D+00
 Coeff-Com:  0.198D-02-0.296D-01-0.309D-01 0.212D+00-0.475D+00 0.132D+01
 Coeff:      0.198D-02-0.296D-01-0.309D-01 0.212D+00-0.475D+00 0.132D+01
 Gap=     0.636 Goal=   None    Shift=    0.000
 RMSDP=9.67D-07 MaxDP=4.12D-06 DE=-5.75D-09 OVMax= 0.00D+00

 Cycle   7  Pass 1  IDiag  1:
 E= -112.354340255848     Delta-E=       -0.000000000040 Rises=F Damp=F
 DIIS: error= 4.25D-08 at cycle   7 NSaved=   7.
 NSaved= 7 IEnMin= 7 EnMin= -112.354340255848     IErMin= 7 ErrMin= 4.25D-08
 ErrMax= 4.25D-08  0.00D+00 EMaxC= 1.00D-01 BMatC= 2.96D-14 BMatP= 1.39D-11
 IDIUse=1 WtCom= 1.00D+00 WtEn= 0.00D+00
 Coeff-Com: -0.101D-03 0.157D-02 0.169D-02-0.116D-01 0.273D-01-0.116D+00
 Coeff-Com:  0.110D+01
 Coeff:     -0.101D-03 0.157D-02 0.169D-02-0.116D-01 0.273D-01-0.116D+00
 Coeff:      0.110D+01
 Gap=     0.636 Goal=   None    Shift=    0.000
 RMSDP=3.97D-08 MaxDP=1.72D-07 DE=-4.04D-11 OVMax= 0.00D+00

 Cycle   8  Pass 1  IDiag  1:
 E= -112.354340255848     Delta-E=       -0.000000000000 Rises=F Damp=F
 DIIS: error= 4.02D-09 at cycle   8 NSaved=   8.
 NSaved= 8 IEnMin= 8 EnMin= -112.354340255848     IErMin= 8 ErrMin= 4.02D-09
 ErrMax= 4.02D-09  0.00D+00 EMaxC= 1.00D-01 BMatC= 2.56D-16 BMatP= 2.96D-14
 IDIUse=1 WtCom= 1.00D+00 WtEn= 0.00D+00
 Coeff-Com:  0.195D-04-0.313D-03-0.330D-03 0.232D-02-0.557D-02 0.253D-01
 Coeff-Com: -0.272D+00 0.125D+01
 Coeff:      0.195D-04-0.313D-03-0.330D-03 0.232D-02-0.557D-02 0.253D-01
 Coeff:     -0.272D+00 0.125D+01
 Gap=     0.636 Goal=   None    Shift=    0.000
 RMSDP=2.96D-09 MaxDP=1.87D-08 DE=-5.68D-14 OVMax= 0.00D+00

 SCF Done:  E(RHF) =  -112.354340256     A.U. after    8 cycles
            NFock=  8  Conv=0.30D-08     -V/T= 2.0090
 KE= 1.113567326559D+02 PE=-3.270728228045D+02 EE= 7.230128110374D+01
 Leave Link  502 at Thu Feb 22 16:06:00 2024, MaxMem=   104857600 cpu:               0.1 elap:               0.1
 (Enter /apps/gaussian/g16-c01-avx2/g16/l701.exe)
 ... and contract with generalized density number  0.
 Compute integral first derivatives.
 Leave Link  701 at Thu Feb 22 16:06:00 2024, MaxMem=   104857600 cpu:               0.0 elap:               0.0
 (Enter /apps/gaussian/g16-c01-avx2/g16/l702.exe)
 L702 exits ... SP integral derivatives will be done elsewhere.
 Leave Link  702 at Thu Feb 22 16:06:01 2024, MaxMem=   104857600 cpu:               0.0 elap:               0.0
 (Enter /apps/gaussian/g16-c01-avx2/g16/l703.exe)
 Integral derivatives from FoFJK, PRISM(SPDF).
 Compute integral first derivatives, UseDBF=F ICtDFT=           0.
 Calling FoFJK, ICntrl=      2127 FMM=F ISym2X=1 I1Cent= 0 IOpClX= 0 NMat=1 NMatS=1 NMatT=0.
 FoFJK:  IHMeth= 1 ICntrl=    2127 DoSepK=F KAlg= 0 I1Cent=           0 FoldK=F
 IRaf=         0 NMat=       1 IRICut=       1 DoRegI=T DoRafI=F ISym2E= 1 IDoP0=0 IntGTp=1.
 FoFCou: FMM=F IPFlag=           0 FMFlag=      100000 FMFlg1=         800
         NFxFlg=           0 DoJE=F BraDBF=F KetDBF=F FulRan=T
         wScrn=  0.000000 ICntrl=      2127 IOpCl=  0 I1Cent=           0 NGrid=           0
         NMat0=    1 NMatS0=      1 NMatT0=    0 NMatD0=    1 NMtDS0=    0 NMtDT0=    0
 Petite list used in FoFCou.
 Leave Link  703 at Thu Feb 22 16:06:01 2024, MaxMem=   104857600 cpu:               0.0 elap:               0.1
 (Enter /apps/gaussian/g16-c01-avx2/g16/l716.exe)
 Dipole        = 6.81456395D-18 3.73888402D-16-6.05582715D-01
 ***** Axes restored to original set *****
 -------------------------------------------------------------------
 Center     Atomic                   Forces (Hartrees/Bohr)
 Number     Number              X              Y              Z
 -------------------------------------------------------------------
      1        6           0.000205155    0.000355488   -0.000000000
      2        1           0.000202088    0.001022192    0.000000000
      3        1           0.000783950    0.000686395    0.000000000
      4        8          -0.001191193   -0.002064074   -0.000000000
 -------------------------------------------------------------------
 Cartesian Forces:  Max     0.002064074 RMS     0.000817478
 Leave Link  716 at Thu Feb 22 16:06:01 2024, MaxMem=   104857600 cpu:               0.0 elap:               0.0
 (Enter /apps/gaussian/g16-c01-avx2/g16/l103.exe)

 GradGradGradGradGradGradGradGradGradGradGradGradGradGradGradGradGradGrad
 Berny optimization.
 Using GEDIIS/GDIIS optimizer.
 FormGI is forming the generalized inverse of G from B-inverse, IUseBI=4.
 Internal  Forces:  Max     0.002383137 RMS     0.001083869
 Search for a local minimum.
 Step number   3 out of a maximum of   20
 All quantities printed in internal units (Hartrees-Bohrs-Radians)
 RMS Force = .10839D-02 SwitMx=.10000D-02 MixMth= 1
 Mixed Optimization -- RFO/linear search
 Update second derivatives using D2CorX and points    1    2    3
 DE= -1.71D-04 DEPred=-1.99D-04 R= 8.58D-01
 TightC=F SS=  1.41D+00  RLast= 4.08D-02 DXNew= 7.7984D-01 1.2248D-01
 Trust test= 8.58D-01 RLast= 4.08D-02 DXMaxT set to 4.64D-01
 The second derivative matrix:
                          R1        R2        R3        A1        A2
           R1           0.37782
           R2           0.00552   0.37782
           R3          -0.02746  -0.02746   1.01118
           A1          -0.00128  -0.00128  -0.06041   0.16328
           A2           0.00064   0.00064   0.03021  -0.00164   0.16082
           A3           0.00064   0.00064   0.03021  -0.00164   0.00082
           D1           0.00000   0.00000   0.00000  -0.00000   0.00000
                          A3        D1
           A3           0.16082
           D1           0.00000   0.03565
 ITU=  1  1  0
 Use linear search instead of GDIIS.
     Eigenvalues ---    0.03565   0.15836   0.16000   0.37230   0.38114
     Eigenvalues ---    1.01993
 RFO step:  Lambda=-7.40434404D-06 EMin= 3.56487693D-02
 Quartic linear search produced a step of -0.12775.
 Iteration  1 RMS(Cart)=  0.00248702 RMS(Int)=  0.00000378
 Iteration  2 RMS(Cart)=  0.00000398 RMS(Int)=  0.00000000
 Iteration  3 RMS(Cart)=  0.00000000 RMS(Int)=  0.00000000
 ITry= 1 IFail=0 DXMaxC= 3.63D-03 DCOld= 1.00D+10 DXMaxT= 4.64D-01 DXLimC= 3.00D+00 Rises=F
 ClnCor:  largest displacement from symmetrization is 1.50D-14 for atom     1.
 Variable       Old X    -DE/DX   Delta X   Delta X   Delta X     New X
                                 (Linear)    (Quad)   (Total)
    R1        2.08312  -0.00082   0.00076  -0.00302  -0.00226   2.08086
    R2        2.08312  -0.00082   0.00076  -0.00302  -0.00226   2.08086
    R3        2.30101  -0.00238  -0.00139  -0.00067  -0.00206   2.29894
    A1        1.99389   0.00090   0.00401   0.00065   0.00466   1.99855
    A2        2.14465  -0.00045  -0.00200  -0.00033  -0.00233   2.14232
    A3        2.14465  -0.00045  -0.00200  -0.00033  -0.00233   2.14232
    D1        3.14159   0.00000   0.00000   0.00000   0.00000   3.14159
         Item               Value     Threshold  Converged?
 Maximum Force            0.002383     0.000450     NO 
 RMS     Force            0.001084     0.000300     NO 
 Maximum Displacement     0.003635     0.001800     NO 
 RMS     Displacement     0.002486     0.001200     NO 
 Predicted change in Energy=-7.431560D-06
 Lowest energy point so far.  Saving SCF results.
 GradGradGradGradGradGradGradGradGradGradGradGradGradGradGradGradGradGrad

 Leave Link  103 at Thu Feb 22 16:06:01 2024, MaxMem=   104857600 cpu:               0.0 elap:               0.0
 (Enter /apps/gaussian/g16-c01-avx2/g16/l202.exe)
                          Input orientation:                          
 ---------------------------------------------------------------------
 Center     Atomic      Atomic             Coordinates (Angstroms)
 Number     Number       Type             X           Y           Z
 ---------------------------------------------------------------------
      1          6           0       -0.501887   -0.368897    0.000000
      2          1           0        0.002548   -1.347706    0.000000
      3          1           0       -1.601758   -0.421848   -0.000000
      4          8           0        0.106196    0.684776   -0.000000
 ---------------------------------------------------------------------
                    Distance matrix (angstroms):
                    1          2          3          4
     1  C    0.000000
     2  H    1.101145   0.000000
     3  H    1.101145   1.852298   0.000000
     4  O    1.216549   2.035122   2.035122   0.000000
 Stoichiometry    CH2O
 Framework group  C2V[C2(CO),SGV(H2)]
 Deg. of freedom     3
 Full point group                 C2V     NOp   4
 RotChk:  IX=3 Diff= 4.55D-16
 Largest Abelian subgroup         C2V     NOp   4
 Largest concise Abelian subgroup C2      NOp   2
                         Standard orientation:                         
 ---------------------------------------------------------------------
 Center     Atomic      Atomic             Coordinates (Angstroms)
 Number     Number       Type             X           Y           Z
 ---------------------------------------------------------------------
      1          6           0        0.000000   -0.000000   -0.533822
      2          1           0       -0.000000   -0.926149   -1.129445
      3          1           0        0.000000    0.926149   -1.129445
      4          8           0       -0.000000    0.000000    0.682727
 ---------------------------------------------------------------------
 Rotational constants (GHZ):         292.3076086          38.0571270          33.6730486
 Leave Link  202 at Thu Feb 22 16:06:01 2024, MaxMem=   104857600 cpu:               0.0 elap:               0.0
 (Enter /apps/gaussian/g16-c01-avx2/g16/l301.exe)
 Standard basis: STO-3G (5D, 7F)
 Ernie: Thresh=  0.10000D-02 Tol=  0.10000D-05 Strict=F.
 There are     7 symmetry adapted cartesian basis functions of A1  symmetry.
 There are     0 symmetry adapted cartesian basis functions of A2  symmetry.
 There are     2 symmetry adapted cartesian basis functions of B1  symmetry.
 There are     3 symmetry adapted cartesian basis functions of B2  symmetry.
 There are     7 symmetry adapted basis functions of A1  symmetry.
 There are     0 symmetry adapted basis functions of A2  symmetry.
 There are     2 symmetry adapted basis functions of B1  symmetry.
 There are     3 symmetry adapted basis functions of B2  symmetry.
    12 basis functions,    36 primitive gaussians,    12 cartesian basis functions
     8 alpha electrons        8 beta electrons
       nuclear repulsion energy        31.0920308439 Hartrees.
 IExCor=    0 DFT=F Ex=HF Corr=None ExCW=0 ScaHFX=  1.000000
 ScaDFX=  1.000000  1.000000  1.000000  1.000000 ScalE2=  1.000000  1.000000
 IRadAn=      5 IRanWt=     -1 IRanGd=            0 ICorTp=0 IEmpDi=  4
 NAtoms=    4 NActive=    4 NUniq=    3 SFac= 1.78D+00 NAtFMM=   60 NAOKFM=F Big=F
 Integral buffers will be    131072 words long.
 Raffenetti 1 integral format.
 Two-electron integral symmetry is turned on.
 Leave Link  301 at Thu Feb 22 16:06:01 2024, MaxMem=   104857600 cpu:               0.0 elap:               0.0
 (Enter /apps/gaussian/g16-c01-avx2/g16/l302.exe)
 NPDir=0 NMtPBC=     1 NCelOv=     1 NCel=       1 NClECP=     1 NCelD=      1
         NCelK=      1 NCelE2=     1 NClLst=     1 CellRange=     0.0.
 One-electron integrals computed using PRISM.
 One-electron integral symmetry used in STVInt
 NBasis=    12 RedAO= T EigKep=  2.41D-01  NBF=     7     0     2     3
 NBsUse=    12 1.00D-06 EigRej= -1.00D+00 NBFU=     7     0     2     3
 Leave Link  302 at Thu Feb 22 16:06:01 2024, MaxMem=   104857600 cpu:               0.0 elap:               0.0
 (Enter /apps/gaussian/g16-c01-avx2/g16/l303.exe)
 DipDrv:  MaxL=1.
 Leave Link  303 at Thu Feb 22 16:06:01 2024, MaxMem=   104857600 cpu:               0.0 elap:               0.0
 (Enter /apps/gaussian/g16-c01-avx2/g16/l401.exe)
 Initial guess from the checkpoint file:  "STO-3G_job1.chk"
 B after Tr=     0.000000    0.000000    0.000000
         Rot=    1.000000    0.000000    0.000000   -0.000000 Ang=   0.00 deg.
 Guess basis will be translated and rotated to current coordinates.
 JPrj=2 DoOrth=T DoCkMO=T.
 Initial guess orbital symmetries:
       Occupied  (A1) (A1) (A1) (A1) (B2) (A1) (B1) (B2)
       Virtual   (B1) (A1) (B2) (A1)
 The electronic state of the initial guess is 1-A1.
 Leave Link  401 at Thu Feb 22 16:06:01 2024, MaxMem=   104857600 cpu:               0.1 elap:               0.0
 (Enter /apps/gaussian/g16-c01-avx2/g16/l502.exe)
 Keep R1 ints in memory in symmetry-blocked form, NReq=807829.
 FoFCou: FMM=F IPFlag=           0 FMFlag=           0 FMFlg1=           0
         NFxFlg=           0 DoJE=F BraDBF=F KetDBF=F FulRan=T
         wScrn=  0.000000 ICntrl=       600 IOpCl=  0 I1Cent=           0 NGrid=           0
         NMat0=    1 NMatS0=     78 NMatT0=    0 NMatD0=    1 NMtDS0=    0 NMtDT0=    0
 Petite list used in FoFCou.
 Closed shell SCF:
 Using DIIS extrapolation, IDIIS=  1040.
 NGot=   104857600 LenX=   104854386 LenY=   104853504
 Requested convergence on RMS density matrix=1.00D-08 within 128 cycles.
 Requested convergence on MAX density matrix=1.00D-06.
 Requested convergence on             energy=1.00D-06.
 No special actions if energy rises.

 Cycle   1  Pass 1  IDiag  1:
 E= -112.354346456002    
 DIIS: error= 1.89D-04 at cycle   1 NSaved=   1.
 NSaved= 1 IEnMin= 1 EnMin= -112.354346456002     IErMin= 1 ErrMin= 1.89D-04
 ErrMax= 1.89D-04  0.00D+00 EMaxC= 1.00D-01 BMatC= 3.69D-07 BMatP= 3.69D-07
 IDIUse=3 WtCom= 9.98D-01 WtEn= 1.89D-03
 Coeff-Com:  0.100D+01
 Coeff-En:   0.100D+01
 Coeff:      0.100D+01
 Gap=     0.636 Goal=   None    Shift=    0.000
 RMSDP=7.12D-05 MaxDP=2.61D-04              OVMax= 0.00D+00

 Cycle   2  Pass 1  IDiag  1:
 E= -112.354346886194     Delta-E=       -0.000000430192 Rises=F Damp=F
 DIIS: error= 4.48D-05 at cycle   2 NSaved=   2.
 NSaved= 2 IEnMin= 2 EnMin= -112.354346886194     IErMin= 2 ErrMin= 4.48D-05
 ErrMax= 4.48D-05  0.00D+00 EMaxC= 1.00D-01 BMatC= 3.35D-08 BMatP= 3.69D-07
 IDIUse=1 WtCom= 1.00D+00 WtEn= 0.00D+00
 Coeff-Com: -0.156D+00 0.116D+01
 Coeff:     -0.156D+00 0.116D+01
 Gap=     0.636 Goal=   None    Shift=    0.000
 RMSDP=3.37D-05 MaxDP=1.72D-04 DE=-4.30D-07 OVMax= 0.00D+00

 Cycle   3  Pass 1  IDiag  1:
 E= -112.354346958075     Delta-E=       -0.000000071881 Rises=F Damp=F
 DIIS: error= 2.59D-05 at cycle   3 NSaved=   3.
 NSaved= 3 IEnMin= 3 EnMin= -112.354346958075     IErMin= 3 ErrMin= 2.59D-05
 ErrMax= 2.59D-05  0.00D+00 EMaxC= 1.00D-01 BMatC= 4.24D-09 BMatP= 3.35D-08
 IDIUse=1 WtCom= 1.00D+00 WtEn= 0.00D+00
 Coeff-Com: -0.276D-01-0.145D+00 0.117D+01
 Coeff:     -0.276D-01-0.145D+00 0.117D+01
 Gap=     0.636 Goal=   None    Shift=    0.000
 RMSDP=1.38D-05 MaxDP=9.00D-05 DE=-7.19D-08 OVMax= 0.00D+00

 Cycle   4  Pass 1  IDiag  1:
 E= -112.354346972126     Delta-E=       -0.000000014051 Rises=F Damp=F
 DIIS: error= 9.72D-06 at cycle   4 NSaved=   4.
 NSaved= 4 IEnMin= 4 EnMin= -112.354346972126     IErMin= 4 ErrMin= 9.72D-06
 ErrMax= 9.72D-06  0.00D+00 EMaxC= 1.00D-01 BMatC= 1.93D-09 BMatP= 4.24D-09
 IDIUse=1 WtCom= 1.00D+00 WtEn= 0.00D+00
 Coeff-Com:  0.332D-01-0.319D+00 0.340D+00 0.946D+00
 Coeff:      0.332D-01-0.319D+00 0.340D+00 0.946D+00
 Gap=     0.636 Goal=   None    Shift=    0.000
 RMSDP=7.47D-06 MaxDP=4.25D-05 DE=-1.41D-08 OVMax= 0.00D+00

 Cycle   5  Pass 1  IDiag  1:
 E= -112.354346975450     Delta-E=       -0.000000003324 Rises=F Damp=F
 DIIS: error= 1.87D-06 at cycle   5 NSaved=   5.
 NSaved= 5 IEnMin= 5 EnMin= -112.354346975450     IErMin= 5 ErrMin= 1.87D-06
 ErrMax= 1.87D-06  0.00D+00 EMaxC= 1.00D-01 BMatC= 7.15D-11 BMatP= 1.93D-09
 IDIUse=1 WtCom= 1.00D+00 WtEn= 0.00D+00
 Coeff-Com: -0.723D-02 0.114D+00-0.171D+00-0.477D+00 0.154D+01
 Coeff:     -0.723D-02 0.114D+00-0.171D+00-0.477D+00 0.154D+01
 Gap=     0.636 Goal=   None    Shift=    0.000
 RMSDP=2.22D-06 MaxDP=1.16D-05 DE=-3.32D-09 OVMax= 0.00D+00

 Cycle   6  Pass 1  IDiag  1:
 E= -112.354346975675     Delta-E=       -0.000000000225 Rises=F Damp=F
 DIIS: error= 2.30D-07 at cycle   6 NSaved=   6.
 NSaved= 6 IEnMin= 6 EnMin= -112.354346975675     IErMin= 6 ErrMin= 2.30D-07
 ErrMax= 2.30D-07  0.00D+00 EMaxC= 1.00D-01 BMatC= 3.62D-13 BMatP= 7.15D-11
 IDIUse=1 WtCom= 1.00D+00 WtEn= 0.00D+00
 Coeff-Com:  0.204D-02-0.335D-01 0.527D-01 0.134D+00-0.477D+00 0.132D+01
 Coeff:      0.204D-02-0.335D-01 0.527D-01 0.134D+00-0.477D+00 0.132D+01
 Gap=     0.636 Goal=   None    Shift=    0.000
 RMSDP=1.40D-07 MaxDP=6.52D-07 DE=-2.25D-10 OVMax= 0.00D+00

 Cycle   7  Pass 1  IDiag  1:
 E= -112.354346975676     Delta-E=       -0.000000000001 Rises=F Damp=F
 DIIS: error= 2.36D-08 at cycle   7 NSaved=   7.
 NSaved= 7 IEnMin= 7 EnMin= -112.354346975676     IErMin= 7 ErrMin= 2.36D-08
 ErrMax= 2.36D-08  0.00D+00 EMaxC= 1.00D-01 BMatC= 4.22D-15 BMatP= 3.62D-13
 IDIUse=1 WtCom= 1.00D+00 WtEn= 0.00D+00
 Coeff-Com: -0.149D-03 0.254D-02-0.423D-02-0.993D-02 0.385D-01-0.218D+00
 Coeff-Com:  0.119D+01
 Coeff:     -0.149D-03 0.254D-02-0.423D-02-0.993D-02 0.385D-01-0.218D+00
 Coeff:      0.119D+01
 Gap=     0.636 Goal=   None    Shift=    0.000
 RMSDP=1.64D-08 MaxDP=7.49D-08 DE=-8.81D-13 OVMax= 0.00D+00

 Cycle   8  Pass 1  IDiag  1:
 E= -112.354346975676     Delta-E=       -0.000000000000 Rises=F Damp=F
 DIIS: error= 1.05D-09 at cycle   8 NSaved=   8.
 NSaved= 8 IEnMin= 8 EnMin= -112.354346975676     IErMin= 8 ErrMin= 1.05D-09
 ErrMax= 1.05D-09  0.00D+00 EMaxC= 1.00D-01 BMatC= 1.16D-17 BMatP= 4.22D-15
 IDIUse=1 WtCom= 1.00D+00 WtEn= 0.00D+00
 Coeff-Com:  0.227D-04-0.395D-03 0.668D-03 0.154D-02-0.609D-02 0.384D-01
 Coeff-Com: -0.235D+00 0.120D+01
 Coeff:      0.227D-04-0.395D-03 0.668D-03 0.154D-02-0.609D-02 0.384D-01
 Coeff:     -0.235D+00 0.120D+01
 Gap=     0.636 Goal=   None    Shift=    0.000
 RMSDP=6.10D-10 MaxDP=2.04D-09 DE=-5.68D-14 OVMax= 0.00D+00

 SCF Done:  E(RHF) =  -112.354346976     A.U. after    8 cycles
            NFock=  8  Conv=0.61D-09     -V/T= 2.0089
 KE= 1.113606439288D+02 PE=-3.271341662353D+02 EE= 7.232714448701D+01
 Leave Link  502 at Thu Feb 22 16:06:01 2024, MaxMem=   104857600 cpu:               0.1 elap:               0.1
 (Enter /apps/gaussian/g16-c01-avx2/g16/l701.exe)
 ... and contract with generalized density number  0.
 Compute integral first derivatives.
 Leave Link  701 at Thu Feb 22 16:06:01 2024, MaxMem=   104857600 cpu:               0.1 elap:               0.1
 (Enter /apps/gaussian/g16-c01-avx2/g16/l702.exe)
 L702 exits ... SP integral derivatives will be done elsewhere.
 Leave Link  702 at Thu Feb 22 16:06:01 2024, MaxMem=   104857600 cpu:               0.0 elap:               0.0
 (Enter /apps/gaussian/g16-c01-avx2/g16/l703.exe)
 Integral derivatives from FoFJK, PRISM(SPDF).
 Compute integral first derivatives, UseDBF=F ICtDFT=           0.
 Calling FoFJK, ICntrl=      2127 FMM=F ISym2X=1 I1Cent= 0 IOpClX= 0 NMat=1 NMatS=1 NMatT=0.
 FoFJK:  IHMeth= 1 ICntrl=    2127 DoSepK=F KAlg= 0 I1Cent=           0 FoldK=F
 IRaf=         0 NMat=       1 IRICut=       1 DoRegI=T DoRafI=F ISym2E= 1 IDoP0=0 IntGTp=1.
 FoFCou: FMM=F IPFlag=           0 FMFlag=      100000 FMFlg1=         800
         NFxFlg=           0 DoJE=F BraDBF=F KetDBF=F FulRan=T
         wScrn=  0.000000 ICntrl=      2127 IOpCl=  0 I1Cent=           0 NGrid=           0
         NMat0=    1 NMatS0=      1 NMatT0=    0 NMatD0=    1 NMtDS0=    0 NMtDT0=    0
 Petite list used in FoFCou.
 Leave Link  703 at Thu Feb 22 16:06:01 2024, MaxMem=   104857600 cpu:               0.0 elap:               0.1
 (Enter /apps/gaussian/g16-c01-avx2/g16/l716.exe)
 Dipole        = 6.84180472D-18-7.81215023D-16-6.04533671D-01
 ***** Axes restored to original set *****
 -------------------------------------------------------------------
 Center     Atomic                   Forces (Hartrees/Bohr)
 Number     Number              X              Y              Z
 -------------------------------------------------------------------
      1        6          -0.000099667   -0.000172700   -0.000000000
      2        1           0.000123989   -0.000174958    0.000000000
      3        1          -0.000213520    0.000019821    0.000000000
      4        8           0.000189198    0.000327838   -0.000000000
 -------------------------------------------------------------------
 Cartesian Forces:  Max     0.000327838 RMS     0.000151382
 Leave Link  716 at Thu Feb 22 16:06:01 2024, MaxMem=   104857600 cpu:               0.0 elap:               0.0
 (Enter /apps/gaussian/g16-c01-avx2/g16/l103.exe)

 GradGradGradGradGradGradGradGradGradGradGradGradGradGradGradGradGradGrad
 Berny optimization.
 Using GEDIIS/GDIIS optimizer.
 FormGI is forming the generalized inverse of G from B-inverse, IUseBI=4.
 Internal  Forces:  Max     0.000378515 RMS     0.000183631
 Search for a local minimum.
 Step number   4 out of a maximum of   20
 All quantities printed in internal units (Hartrees-Bohrs-Radians)
 RMS Force = .18363D-03 SwitMx=.10000D-02 MixMth= 2
 Mixed Optimization -- En-DIIS/RFO-DIIS
 Update second derivatives using D2CorX and points    1    2    3    4
 DE= -6.72D-06 DEPred=-7.43D-06 R= 9.04D-01
 TightC=F SS=  1.41D+00  RLast= 6.86D-03 DXNew= 7.7984D-01 2.0568D-02
 Trust test= 9.04D-01 RLast= 6.86D-03 DXMaxT set to 4.64D-01
 The second derivative matrix:
                          R1        R2        R3        A1        A2
           R1           0.40316
           R2           0.03086   0.40316
           R3           0.01314   0.01314   1.09316
           A1          -0.00336  -0.00336  -0.06409   0.15464
           A2           0.00168   0.00168   0.03205   0.00268   0.15866
           A3           0.00168   0.00168   0.03205   0.00268  -0.00134
           D1           0.00000   0.00000   0.00000  -0.00000   0.00000
                          A3        D1
           A3           0.15866
           D1           0.00000   0.03565
 ITU=  1  1  1  0
 Use linear search instead of GDIIS.
     Eigenvalues ---    0.03565   0.14539   0.16000   0.37230   0.43354
     Eigenvalues ---    1.10020
 RFO step:  Lambda=-2.47564682D-07 EMin= 3.56487693D-02
 Quartic linear search produced a step of -0.08849.
 Iteration  1 RMS(Cart)=  0.00036854 RMS(Int)=  0.00000006
 Iteration  2 RMS(Cart)=  0.00000005 RMS(Int)=  0.00000000
 ITry= 1 IFail=0 DXMaxC= 5.86D-04 DCOld= 1.00D+10 DXMaxT= 4.64D-01 DXLimC= 3.00D+00 Rises=F
 ClnCor:  largest displacement from symmetrization is 9.96D-15 for atom     1.
 Variable       Old X    -DE/DX   Delta X   Delta X   Delta X     New X
                                 (Linear)    (Quad)   (Total)
    R1        2.08086   0.00021   0.00020   0.00028   0.00048   2.08135
    R2        2.08086   0.00021   0.00020   0.00028   0.00048   2.08135
    R3        2.29894   0.00038   0.00018   0.00019   0.00037   2.29932
    A1        1.99855   0.00004  -0.00041   0.00087   0.00046   1.99900
    A2        2.14232  -0.00002   0.00021  -0.00043  -0.00023   2.14209
    A3        2.14232  -0.00002   0.00021  -0.00043  -0.00023   2.14209
    D1        3.14159   0.00000   0.00000   0.00000   0.00000   3.14159
         Item               Value     Threshold  Converged?
 Maximum Force            0.000379     0.000450     YES
 RMS     Force            0.000184     0.000300     YES
 Maximum Displacement     0.000586     0.001800     YES
 RMS     Displacement     0.000369     0.001200     YES
 Predicted change in Energy=-1.876640D-07
 Optimization completed.
    -- Stationary point found.
                           ----------------------------
                           !   Optimized Parameters   !
                           ! (Angstroms and Degrees)  !
 --------------------------                            --------------------------
 ! Name  Definition              Value          Derivative Info.                !
 --------------------------------------------------------------------------------
 ! R1    R(1,2)                  1.1011         -DE/DX =    0.0002              !
 ! R2    R(1,3)                  1.1011         -DE/DX =    0.0002              !
 ! R3    R(1,4)                  1.2165         -DE/DX =    0.0004              !
 ! A1    A(2,1,3)              114.5084         -DE/DX =    0.0                 !
 ! A2    A(2,1,4)              122.7458         -DE/DX =    0.0                 !
 ! A3    A(3,1,4)              122.7458         -DE/DX =    0.0                 !
 ! D1    D(2,1,4,3)            180.0            -DE/DX =    0.0                 !
 --------------------------------------------------------------------------------
 Lowest energy point so far.  Saving SCF results.
 Largest change from initial coordinates is atom    2       0.013 Angstoms.
 GradGradGradGradGradGradGradGradGradGradGradGradGradGradGradGradGradGrad

[...]
     X                                                                              X                                                
     X                                                                              X                                                
     X                                                                              X                                                
                                                                                    X                                                
                                                                                    X                                                
                                                                                    X                                                
                                                                                    X                                                
                                                                                    X                                                
                                                                                    X                                                
                                                                                    X                                                
 
 
                                 Ground state optimization and frequency calculat
 ion for formaldehyde
                                                            Raman Spectrum
 
     3     3                                               2           1            1   1                                            
     6     5                                               1           7            3   2                                            
     4     0                                               0           6            9   7                                            
     8     1                                               1           7            7   8                                            
 
     X     X                                               X           X            X                                                
     X     X                                               X           X            X                                                
     X     X                                               X           X                                                             
     X     X                                                           X                                                             
     X     X                                                           X                                                             
     X     X                                                           X                                                             
     X     X                                                           X                                                             
     X     X                                                           X                                                             
     X     X                                                                                                                         
     X     X                                                                                                                         
     X     X                                                                                                                         
     X     X                                                                                                                         
     X     X                                                                                                                         
           X                                                                                                                         
           X                                                                                                                         
           X                                                                                                                         
           X                                                                                                                         
           X                                                                                                                         
           X                                                                                                                         
           X                                                                                                                         
 
 ***** Axes restored to original set *****
 -------------------------------------------------------------------
 Center     Atomic                   Forces (Hartrees/Bohr)
 Number     Number              X              Y              Z
 -------------------------------------------------------------------
      1        6          -0.000099667   -0.000172700   -0.000000000
      2        1           0.000123989   -0.000174958    0.000000000
      3        1          -0.000213520    0.000019821    0.000000000
      4        8           0.000189198    0.000327838   -0.000000000
 -------------------------------------------------------------------
 Cartesian Forces:  Max     0.000327838 RMS     0.000151382
 Force constants in Cartesian coordinates: 
                1             2             3             4             5 
      1  0.959124D+00
      2  0.255667D+00  0.125459D+01
      3  0.000000D+00  0.000000D+00  0.197097D+00
      4 -0.179703D+00  0.144379D+00  0.000000D+00  0.160614D+00
      5  0.149381D+00 -0.333604D+00  0.000000D+00 -0.147920D+00  0.376016D+00
      6  0.000000D+00  0.000000D+00 -0.661867D-01  0.000000D+00  0.000000D+00
      7 -0.422336D+00  0.917948D-02  0.000000D+00 -0.754491D-02 -0.849443D-02
      8  0.417743D-02 -0.909714D-01  0.000000D+00  0.330078D-01  0.661978D-02
      9  0.000000D+00  0.000000D+00 -0.661867D-01  0.000000D+00  0.000000D+00
     10 -0.357085D+00 -0.409226D+00  0.000000D+00  0.266345D-01  0.703282D-02
     11 -0.409226D+00 -0.830015D+00  0.000000D+00 -0.294673D-01 -0.490315D-01
     12  0.000000D+00  0.000000D+00 -0.647234D-01  0.000000D+00  0.000000D+00
                6             7             8             9            10 
      6  0.221475D-01
      7  0.000000D+00  0.450253D+00
      8  0.000000D+00  0.194445D-01  0.863760D-01
      9  0.222588D-01  0.000000D+00  0.000000D+00  0.221475D-01
     10  0.000000D+00 -0.203726D-01 -0.566297D-01  0.000000D+00  0.350823D+00
     11  0.000000D+00 -0.201296D-01 -0.202432D-02  0.000000D+00  0.458822D+00
     12  0.217803D-01  0.000000D+00  0.000000D+00  0.217803D-01  0.000000D+00
               11            12 
     11  0.881071D+00
     12  0.000000D+00  0.211627D-01
 FormGI is forming the generalized inverse of G from B-inverse, IUseBI=4.
 Force constants in internal coordinates: 
                1             2             3             4             5 
      1  0.451280D+00
      2 -0.453379D-02  0.451280D+00
      3  0.290312D-01  0.290312D-01  0.114586D+01
      4  0.495070D-02  0.495070D-02 -0.398089D-01  0.113828D+00
      5  0.888668D-02 -0.138374D-01  0.199044D-01 -0.569138D-01  0.142349D+00
      6 -0.138374D-01  0.888668D-02  0.199044D-01 -0.569138D-01 -0.854352D-01
      7  0.000000D+00  0.000000D+00  0.000000D+00  0.000000D+00  0.000000D+00
                6             7 
      6  0.142349D+00
      7  0.000000D+00  0.681484D-01
 Leave Link  716 at Thu Feb 22 16:07:00 2024, MaxMem=   104857600 cpu:               0.0 elap:               0.0
 (Enter /apps/gaussian/g16-c01-avx2/g16/l103.exe)

 GradGradGradGradGradGradGradGradGradGradGradGradGradGradGradGradGradGrad
 Berny optimization.
 Red2BG is reusing G-inverse.
 Internal  Forces:  Max     0.000378515 RMS     0.000183631
 Search for a local minimum.
 Step number   1 out of a maximum of    2
 All quantities printed in internal units (Hartrees-Bohrs-Radians)
 Second derivative matrix not updated -- analytic derivatives used.
 The second derivative matrix:
                          R1        R2        R3        A1        A2
           R1           0.45128
           R2          -0.00453   0.45128
           R3           0.02903   0.02903   1.14586
           A1           0.00495   0.00495  -0.03981   0.11383
           A2           0.00889  -0.01384   0.01990  -0.05691   0.14235
           A3          -0.01384   0.00889   0.01990  -0.05691  -0.08544
           D1          -0.00000   0.00000   0.00000  -0.00000  -0.00000
                          A3        D1
           A3           0.14235
           D1           0.00000   0.06815
 ITU=  0
     Eigenvalues ---    0.06815   0.16790   0.22554   0.44481   0.45806
     Eigenvalues ---    1.15063
 Angle between quadratic step and forces=  31.31 degrees.
 Linear search not attempted -- first point.
 Iteration  1 RMS(Cart)=  0.00030798 RMS(Int)=  0.00000003
 Iteration  2 RMS(Cart)=  0.00000003 RMS(Int)=  0.00000000
 ITry= 1 IFail=0 DXMaxC= 5.07D-04 DCOld= 1.00D+10 DXMaxT= 3.00D-01 DXLimC= 3.00D+00 Rises=F
 ClnCor:  largest displacement from symmetrization is 1.08D-14 for atom     3.
 Variable       Old X    -DE/DX   Delta X   Delta X   Delta X     New X
                                 (Linear)    (Quad)   (Total)
    R1        2.08086   0.00021   0.00000   0.00045   0.00045   2.08131
    R2        2.08086   0.00021   0.00000   0.00045   0.00045   2.08131
    R3        2.29894   0.00038   0.00000   0.00032   0.00032   2.29927
    A1        1.99855   0.00004   0.00000   0.00029   0.00029   1.99884
    A2        2.14232  -0.00002   0.00000  -0.00015  -0.00015   2.14217
    A3        2.14232  -0.00002   0.00000  -0.00015  -0.00015   2.14217
    D1        3.14159   0.00000   0.00000   0.00000   0.00000   3.14159
         Item               Value     Threshold  Converged?
 Maximum Force            0.000379     0.000450     YES
 RMS     Force            0.000184     0.000300     YES
 Maximum Displacement     0.000507     0.001800     YES
 RMS     Displacement     0.000308     0.001200     YES
 Predicted change in Energy=-1.656997D-07
 Optimization completed.
    -- Stationary point found.
                           ----------------------------
                           !   Optimized Parameters   !
                           ! (Angstroms and Degrees)  !
 --------------------------                            --------------------------
 ! Name  Definition              Value          Derivative Info.                !
 --------------------------------------------------------------------------------
 ! R1    R(1,2)                  1.1011         -DE/DX =    0.0002              !
 ! R2    R(1,3)                  1.1011         -DE/DX =    0.0002              !
 ! R3    R(1,4)                  1.2165         -DE/DX =    0.0004              !
 ! A1    A(2,1,3)              114.5084         -DE/DX =    0.0                 !
 ! A2    A(2,1,4)              122.7458         -DE/DX =    0.0                 !
 ! A3    A(3,1,4)              122.7458         -DE/DX =    0.0                 !
 ! D1    D(2,1,4,3)            180.0            -DE/DX =    0.0                 !
 --------------------------------------------------------------------------------
 GradGradGradGradGradGradGradGradGradGradGradGradGradGradGradGradGradGrad

 Leave Link  103 at Thu Feb 22 16:07:00 2024, MaxMem=   104857600 cpu:               0.0 elap:               0.0
 (Enter /apps/gaussian/g16-c01-avx2/g16/l9999.exe)

 ----------------------------------------------------------------------

 Electric dipole moment (input orientation):
 (Debye = 10**-18 statcoulomb cm , SI units = C m)
                  (au)            (Debye)         (10**-30 SI)
   Tot        0.604534D+00      0.153657D+01      0.512545D+01
   x         -0.302172D+00     -0.768044D+00     -0.256192D+01
   y         -0.523596D+00     -0.133085D+01     -0.443924D+01
   z          0.000000D+00      0.000000D+00      0.000000D+00

 Dipole polarizability, Alpha (input orientation).
 (esu units = cm**3 , SI units = C**2 m**2 J**-1)
 Alpha(0;0):
               (au)            (10**-24 esu)      (10**-40 SI)
   iso        0.634734D+01      0.940579D+00      0.104653D+01
   aniso      0.712208D+01      0.105538D+01      0.117427D+01
   xx         0.708846D+01      0.105040D+01      0.116873D+01
   yx         0.206458D+01      0.305939D+00      0.340403D+00
   yy         0.947443D+01      0.140397D+01      0.156212D+01
   zx         0.000000D+00      0.000000D+00      0.000000D+00
   zy         0.000000D+00      0.000000D+00      0.000000D+00
   zz         0.247913D+01      0.367369D+00      0.408753D+00

 First dipole hyperpolarizability, Beta (input orientation).
 ||, _|_  parallel and perpendicular components, (z) with respect to z axis,
 vector components x,y,z.  Values do not include the 1/n! factor of 1/2.
 (esu units = statvolt**-1 cm**4 , SI units = C**3 m**3 J**-2)
 Beta(0;0,0):
               (au)            (10**-30 esu)      (10**-50 SI)
   || (z)     0.000000D+00      0.000000D+00      0.000000D+00
   _|_(z)     0.000000D+00      0.000000D+00      0.000000D+00
   x         -0.172305D+02     -0.148858D+00     -0.552472D-01
   y         -0.298566D+02     -0.257938D+00     -0.957311D-01
   z          0.000000D+00      0.000000D+00      0.000000D+00
   ||         0.689437D+01      0.595620D-01      0.221058D-01
   xxx       -0.598123D+01     -0.516731D-01     -0.191780D-01
   xxy       -0.208841D+01     -0.180423D-01     -0.669621D-02
   yxy        0.116325D+01      0.100496D-01      0.372980D-02
   yyy       -0.626007D+01     -0.540821D-01     -0.200721D-01
   xxz        0.000000D+00      0.000000D+00      0.000000D+00
   yxz        0.000000D+00      0.000000D+00      0.000000D+00
   yyz        0.000000D+00      0.000000D+00      0.000000D+00
   zxz       -0.925520D+00     -0.799578D-02     -0.296755D-02
   zyz       -0.160372D+01     -0.138549D-01     -0.514211D-02
   zzz        0.000000D+00      0.000000D+00      0.000000D+00

 ----------------------------------------------------------------------

 Dipole orientation:
     6         -0.40967521          0.23642673          1.07784821
     1          1.10617426         -0.63838171          2.20341391
     1         -1.92552468          1.11123516          2.20341391
     8         -0.40967521          0.23642673         -1.22109632

 Electric dipole moment (dipole orientation):
 (Debye = 10**-18 statcoulomb cm , SI units = C m)
                  (au)            (Debye)         (10**-30 SI)
   Tot        0.604534D+00      0.153657D+01      0.512545D+01
   x          0.000000D+00      0.000000D+00      0.000000D+00
   y          0.000000D+00      0.000000D+00      0.000000D+00
   z          0.604534D+00      0.153657D+01      0.512545D+01

 Dipole polarizability, Alpha (dipole orientation).
 (esu units = cm**3 , SI units = C**2 m**2 J**-1)
 Alpha(0;0):
               (au)            (10**-24 esu)      (10**-40 SI)
   iso        0.634734D+01      0.940579D+00      0.104653D+01
   aniso      0.712208D+01      0.105538D+01      0.117427D+01
   xx         0.504305D+01      0.747303D+00      0.831487D+00
   yx        -0.147966D+01     -0.219263D+00     -0.243963D+00
   yy         0.333305D+01      0.493907D+00      0.549546D+00
   zx         0.000000D+00      0.000000D+00      0.000000D+00
   zy         0.000000D+00      0.000000D+00      0.000000D+00
   zz         0.106659D+02      0.158053D+01      0.175857D+01

 First dipole hyperpolarizability, Beta (dipole orientation).
 ||, _|_  parallel and perpendicular components, (z) with respect to z axis,
 vector components x,y,z.  Values do not include the 1/n! factor of 1/2.
 (esu units = statvolt**-1 cm**4 , SI units = C**3 m**3 J**-2)
 Beta(0;0,0):
               (au)            (10**-30 esu)      (10**-50 SI)
   || (z)     0.689437D+01      0.595620D-01      0.221058D-01
   _|_(z)     0.229812D+01      0.198540D-01      0.736861D-02
   x          0.000000D+00      0.000000D+00      0.000000D+00
   y          0.000000D+00      0.000000D+00      0.000000D+00
   z          0.344718D+02      0.297810D+00      0.110529D+00
   ||         0.689437D+01      0.595620D-01      0.221058D-01
   xxx        0.000000D+00      0.000000D+00      0.000000D+00
   xxy        0.000000D+00      0.000000D+00      0.000000D+00
   yxy        0.000000D+00      0.000000D+00      0.000000D+00
   yyy        0.000000D+00      0.000000D+00      0.000000D+00
   xxz        0.404649D+01      0.349585D-01      0.129745D-01
   yxz       -0.126667D+01     -0.109431D-01     -0.406141D-02
   yyz        0.258263D+01      0.223119D-01      0.828085D-02
   zxz        0.000000D+00      0.000000D+00      0.000000D+00
   zyz        0.000000D+00      0.000000D+00      0.000000D+00
   zzz        0.486149D+01      0.419995D-01      0.155877D-01

 ----------------------------------------------------------------------
 Unable to Open any file for archive entry.
 1\1\GINC-CX3-7-2\Freq\RHF\STO-3G\C1H2O1\RK820\22-Feb-2024\0\\#P Geom=A
 llCheck Guess=TCheck SCRF=Check GenChk RHF/STO-3G Freq\\Ground state o
 ptimization and frequency calculation for formaldehyde\\0,1\C,-0.50188
 72686,-0.3688974972,0.\H,0.0025477186,-1.3477056253,0.\H,-1.6017582726
 ,-0.4218482504,0.\O,0.1061955746,0.684775536,0.\\Version=ES64L-G16RevC
 .01\State=1-A1\HF=-112.354347\RMSD=0.000e+00\RMSF=1.514e-04\ZeroPoint=
 0.0311931\Thermal=0.0340473\ETot=-112.3202996\HTot=-112.3193555\GTot=-
 112.3441609\Dipole=-0.3021716,-0.5235965,0.\DipoleDeriv=0.494412,-0.15
 75174,0.,-0.1575174,0.3123737,0.,0.,0.,0.0340793,-0.082599,0.0472637,0
 .,0.0469323,0.0299829,0.,0.,0.,0.0768266,-0.0390033,0.0721235,0.,0.072
 4549,-0.0136129,0.,0.,0.,0.0768266,-0.3728097,0.0381302,0.,0.0381302,-
 0.3287437,0.,0.,0.,-0.1877326\Polar=7.0884583,2.064577,9.4744302,0.,0.
 ,2.4791281\PolarDeriv=0.9036833,-0.9479665,-2.204165,0.,0.,-0.3996076,
 -0.1764629,-2.6494057,-2.0769842,0.,0.,-0.6924316,0.,0.,0.,-1.2501744,
 -2.1662757,0.,1.886413,-2.4315192,0.8791151,0.,0.,0.0373853,-0.2763823
 ,1.5832284,-4.8515222,0.,0.,-0.1641727,0.,0.,0.,0.6678665,-0.7962182,0
 .,-6.0167111,-0.2056759,0.1931133,0.,0.,-0.1608523,0.2629197,-2.025176
 3,-0.4339734,0.,0.,-0.0497683,0.,0.,0.,-1.0235439,0.1799078,0.,3.22661
 48,3.5851615,1.1319367,0.,0.,0.5230746,0.1899255,3.0913536,7.3624798,0
 .,0.,0.9063725,0.,0.,0.,1.6058519,2.7825861,0.\HyperPolar=-5.9812264,-
 2.0884134,1.1632515,-6.2600711,0.,0.,0.,-0.9255205,-1.6037222,0.\Quadr
 upole=0.0171881,-0.2666646,0.2494765,-0.2456172,0.,0.\PG=C02V [C2(C1O1
 ),SGV(H2)]\NImag=0\\0.95912432,0.25566678,1.25459101,0.,0.,0.19709679,
 -0.17970316,0.14437929,0.,0.16061352,0.14938134,-0.33360427,0.,-0.1479
 1973,0.37601595,0.,0.,-0.06618669,0.,0.,0.02214751,-0.42233598,0.00917
 948,0.,-0.00754491,-0.00849443,0.,0.45025348,0.00417743,-0.09097144,0.
 ,0.03300779,0.00661978,0.,0.01944453,0.08637598,0.,0.,-0.06618669,0.,0
 .,0.02225883,0.,0.,0.02214751,-0.35708518,-0.40922555,0.,0.02663455,0.
 00703282,0.,-0.02037260,-0.05662974,0.,0.35082323,-0.40922555,-0.83001
 530,0.,-0.02946735,-0.04903146,0.,-0.02012958,-0.00202432,0.,0.4588224
 8,0.88107108,0.,0.,-0.06472341,0.,0.,0.02178035,0.,0.,0.02178035,0.,0.
 ,0.02116272\\0.00009967,0.00017270,0.,-0.00012399,0.00017496,0.,0.0002
 1352,-0.00001982,0.,-0.00018920,-0.00032784,0.\\\@
 The archive entry for this job was punched.


 HONESTY IN A LAWYER IS LIKE A HEN'S HIND LEGS.
  -- MAGNUS OLESON, LAKE WOBEGON PATRIARCH, C.1875
 Job cpu time:       0 days  0 hours  0 minutes  0.8 seconds.
 Elapsed time:       0 days  0 hours  0 minutes 11.6 seconds.
 File lengths (MBytes):  RWF=      6 Int=      0 D2E=      0 Chk=      1 Scr=      1
 Normal termination of Gaussian 16 at Thu Feb 22 16:07:00 2024.
