 Entering Gaussian System, Link 0=g16
 Input=manual_displacement.gjf
 Output=manual_displacement.log
 Initial command:
 /apps/gaussian/g16-c01-avx2/g16/l1.exe "/var/tmp/pbs.8976244.pbs/Gau-2537846.inp" -scrdir="/var/tmp/pbs.8976244.pbs/"
 Entering Link 1 = /apps/gaussian/g16-c01-avx2/g16/l1.exe PID=   2537848.
  
 Copyright (c) 1988-2019, Gaussian, Inc.  All Rights Reserved.
  
 This is part of the Gaussian(R) 16 program.  It is based on
 the Gaussian(R) 09 system (copyright 2009, Gaussian, Inc.),
 the Gaussian(R) 03 system (copyright 2003, Gaussian, Inc.),
 the Gaussian(R) 98 system (copyright 1998, Gaussian, Inc.),
 the Gaussian(R) 94 system (copyright 1995, Gaussian, Inc.),
 the Gaussian 92(TM) system (copyright 1992, Gaussian, Inc.),
 the Gaussian 90(TM) system (copyright 1990, Gaussian, Inc.),
 the Gaussian 88(TM) system (copyright 1988, Gaussian, Inc.),
 the Gaussian 86(TM) system (copyright 1986, Carnegie Mellon
 University), and the Gaussian 82(TM) system (copyright 1983,
 Carnegie Mellon University). Gaussian is a federally registered
 trademark of Gaussian, Inc.
  
 This software contains proprietary and confidential information,
 including trade secrets, belonging to Gaussian, Inc.
  
 This software is provided under written license and may be
 used, copied, transmitted, or stored only in accord with that
 written license.
  
 The following legend is applicable only to US Government
 contracts under FAR:
  
                    RESTRICTED RIGHTS LEGEND
  
 Use, reproduction and disclosure by the US Government is
 subject to restrictions as set forth in subparagraphs (a)
 and (c) of the Commercial Computer Software - Restricted
 Rights clause in FAR 52.227-19.
  
 Gaussian, Inc.
 340 Quinnipiac St., Bldg. 40, Wallingford CT 06492
  
  
 ---------------------------------------------------------------
 Warning -- This program may not be used in any manner that
 competes with the business of Gaussian, Inc. or will provide
 assistance to any competitor of Gaussian, Inc.  The licensee
 of this program is prohibited from giving any competitor of
 Gaussian, Inc. access to this program.  By using this program,
 the user acknowledges that Gaussian, Inc. is engaged in the
 business of creating and licensing software in the field of
 computational chemistry and represents and warrants to the
 licensee that it is not a competitor of Gaussian, Inc. and that
 it will not use this program in any manner prohibited above.
 ---------------------------------------------------------------
  

 Cite this work as:
 Gaussian 16, Revision C.01,
 M. J. Frisch, G. W. Trucks, H. B. Schlegel, G. E. Scuseria, 
 M. A. Robb, J. R. Cheeseman, G. Scalmani, V. Barone, 
 G. A. Petersson, H. Nakatsuji, X. Li, M. Caricato, A. V. Marenich, 
 J. Bloino, B. G. Janesko, R. Gomperts, B. Mennucci, H. P. Hratchian, 
 J. V. Ortiz, A. F. Izmaylov, J. L. Sonnenberg, D. Williams-Young, 
 F. Ding, F. Lipparini, F. Egidi, J. Goings, B. Peng, A. Petrone, 
 T. Henderson, D. Ranasinghe, V. G. Zakrzewski, J. Gao, N. Rega, 
 G. Zheng, W. Liang, M. Hada, M. Ehara, K. Toyota, R. Fukuda, 
 J. Hasegawa, M. Ishida, T. Nakajima, Y. Honda, O. Kitao, H. Nakai, 
 T. Vreven, K. Throssell, J. A. Montgomery, Jr., J. E. Peralta, 
 F. Ogliaro, M. J. Bearpark, J. J. Heyd, E. N. Brothers, K. N. Kudin, 
 V. N. Staroverov, T. A. Keith, R. Kobayashi, J. Normand, 
 K. Raghavachari, A. P. Rendell, J. C. Burant, S. S. Iyengar, 
 J. Tomasi, M. Cossi, J. M. Millam, M. Klene, C. Adamo, R. Cammi, 
 J. W. Ochterski, R. L. Martin, K. Morokuma, O. Farkas, 
 J. B. Foresman, and D. J. Fox, Gaussian, Inc., Wallingford CT, 2019.
 
 ******************************************
 Gaussian 16:  ES64L-G16RevC.01  3-Jul-2019
                23-Feb-2024 
 ******************************************
 %chk=manual_displacement_opt.chk
 -----------------------------------------------------------
 #p CIS(Root=1)/STO-3G geom=connectivity Density=Current Opt
 -----------------------------------------------------------
 1/18=20,19=15,38=1,57=2/1,3;
 2/9=110,12=2,17=6,18=5,40=1/2;
 3/6=3,11=9,25=1,30=1,71=1/1,2,3,8;
 4//1;
 5/5=2,38=5/2;
 8/6=1,10=1,107=1/1;
 9/8=1,15=2,42=1/14;
 10/5=4,28=1/2;
 6/7=2,8=2,9=2,10=2,22=-1/1;
 7/12=6,13=5,14=1/1,2,3,16;
 1/18=20,19=15/3(2);
 2/9=110/2;
 99//99;
 2/9=110/2;
 3/6=3,11=9,25=1,30=1,71=1/1,2,3,8;
 4/5=5,16=3,69=1/1;
 5/5=2,38=5/2;
 8/6=1,10=1,107=1/1;
 9/8=1,15=2,42=1,49=4/14;
 10/5=4,28=1/2;
 7/12=6,13=5,14=1/1,2,3,16;
 1/18=20,19=15/3(-8);
 2/9=110/2;
 6/7=2,8=2,9=2,10=2,22=-1/1;
 99/9=10/99;
 Leave Link    1 at Fri Feb 23 11:03:07 2024, MaxMem=           0 cpu:               0.0 elap:               0.0
 (Enter /apps/gaussian/g16-c01-avx2/g16/l101.exe)
 ----------------------------------------------------------------------
 Manually displaced excited state geometry re-optimized in search of a 
 minimal energy structure.
 ----------------------------------------------------------------------
 Symbolic Z-matrix:
 Charge =  0 Multiplicity = 1
 C                    -0.0784    0.       -0.58689 
 H                     0.343    -0.94279  -1.1103 
 H                     0.343     0.94279  -1.1103 
 O                     0.0196    0.        0.71775 
 
 ITRead=  0  0  0  0
 MicOpt= -1 -1 -1 -1
 NAtoms=      4 NQM=        4 NQMF=       0 NMMI=      0 NMMIF=      0
                NMic=       0 NMicF=      0.
                    Isotopes and Nuclear Properties:
 (Nuclear quadrupole moments (NQMom) in fm**2, nuclear magnetic moments (NMagM)
  in nuclear magnetons)

  Atom         1           2           3           4
 IAtWgt=          12           1           1          16
 AtmWgt=  12.0000000   1.0078250   1.0078250  15.9949146
 NucSpn=           0           1           1           0
 AtZEff=  -0.0000000  -0.0000000  -0.0000000  -0.0000000
 NQMom=    0.0000000   0.0000000   0.0000000   0.0000000
 NMagM=    0.0000000   2.7928460   2.7928460   0.0000000
 AtZNuc=   6.0000000   1.0000000   1.0000000   8.0000000
 Leave Link  101 at Fri Feb 23 11:03:08 2024, MaxMem=   104857600 cpu:               0.1 elap:               0.1
 (Enter /apps/gaussian/g16-c01-avx2/g16/l103.exe)

 GradGradGradGradGradGradGradGradGradGradGradGradGradGradGradGradGradGrad
 Berny optimization.
 Initialization pass.
                           ----------------------------
                           !    Initial Parameters    !
                           ! (Angstroms and Degrees)  !
 --------------------------                            --------------------------
 ! Name  Definition              Value          Derivative Info.                !
 --------------------------------------------------------------------------------
 ! R1    R(1,2)                  1.1577         estimate D2E/DX2                !
 ! R2    R(1,3)                  1.1577         estimate D2E/DX2                !
 ! R3    R(1,4)                  1.3083         estimate D2E/DX2                !
 ! A1    A(2,1,3)              109.0424         estimate D2E/DX2                !
 ! A2    A(2,1,4)              115.0591         estimate D2E/DX2                !
 ! A3    A(3,1,4)              115.0591         estimate D2E/DX2                !
 ! D1    D(2,1,4,3)            128.0399         estimate D2E/DX2                !
 --------------------------------------------------------------------------------
 Trust Radius=3.00D-01 FncErr=1.00D-07 GrdErr=1.00D-07 EigMax=2.50D+02 EigMin=1.00D-04
 Number of steps in this run=     20 maximum allowed number of steps=    100.
 GradGradGradGradGradGradGradGradGradGradGradGradGradGradGradGradGradGrad

 Leave Link  103 at Fri Feb 23 11:03:09 2024, MaxMem=   104857600 cpu:               0.0 elap:               0.0
 (Enter /apps/gaussian/g16-c01-avx2/g16/l202.exe)
                          Input orientation:                          
 ---------------------------------------------------------------------
 Center     Atomic      Atomic             Coordinates (Angstroms)
 Number     Number       Type             X           Y           Z
 ---------------------------------------------------------------------
      1          6           0       -0.078400    0.000000   -0.586894
      2          1           0        0.343000   -0.942788   -1.110296
      3          1           0        0.343000    0.942788   -1.110296
      4          8           0        0.019600    0.000000    0.717745
 ---------------------------------------------------------------------
                    Distance matrix (angstroms):
                    1          2          3          4
     1  C    0.000000
     2  H    1.157746   0.000000
     3  H    1.157746   1.885576   0.000000
     4  O    1.308315   2.082107   2.082107   0.000000
 Stoichiometry    CH2O
 Framework group  CS[SG(CO),X(H2)]
 Deg. of freedom     4
 Full point group                 CS      NOp   2
 Largest Abelian subgroup         CS      NOp   2
 Largest concise Abelian subgroup CS      NOp   2
                         Standard orientation:                         
 ---------------------------------------------------------------------
 Center     Atomic      Atomic             Coordinates (Angstroms)
 Number     Number       Type             X           Y           Z
 ---------------------------------------------------------------------
      1          6           0        0.057428    0.592861    0.000000
      2          1           0       -0.401994    1.083228    0.942788
      3          1           0       -0.401994    1.083228   -0.942788
      4          8           0        0.057428   -0.715453   -0.000000
 ---------------------------------------------------------------------
 Rotational constants (GHZ):         239.6850205          33.6611002          30.6504956
 Leave Link  202 at Fri Feb 23 11:03:09 2024, MaxMem=   104857600 cpu:               0.0 elap:               0.0
 (Enter /apps/gaussian/g16-c01-avx2/g16/l301.exe)
 Standard basis: STO-3G (5D, 7F)
 Ernie: Thresh=  0.10000D-02 Tol=  0.10000D-05 Strict=F.
 There are     9 symmetry adapted cartesian basis functions of A'  symmetry.
 There are     3 symmetry adapted cartesian basis functions of A"  symmetry.
 There are     9 symmetry adapted basis functions of A'  symmetry.
 There are     3 symmetry adapted basis functions of A"  symmetry.
    12 basis functions,    36 primitive gaussians,    12 cartesian basis functions
     8 alpha electrons        8 beta electrons
       nuclear repulsion energy        29.2467002058 Hartrees.
 IExCor=    0 DFT=F Ex=HF Corr=None ExCW=0 ScaHFX=  1.000000
 ScaDFX=  1.000000  1.000000  1.000000  1.000000 ScalE2=  1.000000  1.000000
 IRadAn=      5 IRanWt=     -1 IRanGd=            0 ICorTp=0 IEmpDi=  4
 NAtoms=    4 NActive=    4 NUniq=    3 SFac= 1.78D+00 NAtFMM=   60 NAOKFM=F Big=F
 Integral buffers will be    131072 words long.
 Raffenetti 1 integral format.
 Two-electron integral symmetry is turned on.
 Leave Link  301 at Fri Feb 23 11:03:10 2024, MaxMem=   104857600 cpu:               0.0 elap:               0.1
 (Enter /apps/gaussian/g16-c01-avx2/g16/l302.exe)
 NPDir=0 NMtPBC=     1 NCelOv=     1 NCel=       1 NClECP=     1 NCelD=      1
         NCelK=      1 NCelE2=     1 NClLst=     1 CellRange=     0.0.
 One-electron integrals computed using PRISM.
 One-electron integral symmetry used in STVInt
 NBasis=    12 RedAO= T EigKep=  2.75D-01  NBF=     9     3
 NBsUse=    12 1.00D-06 EigRej= -1.00D+00 NBFU=     9     3
 Leave Link  302 at Fri Feb 23 11:03:10 2024, MaxMem=   104857600 cpu:               0.1 elap:               0.1
 (Enter /apps/gaussian/g16-c01-avx2/g16/l303.exe)
 DipDrv:  MaxL=1.
 Leave Link  303 at Fri Feb 23 11:03:11 2024, MaxMem=   104857600 cpu:               0.0 elap:               0.0
 (Enter /apps/gaussian/g16-c01-avx2/g16/l308.exe)
 Leave Link  308 at Fri Feb 23 11:03:12 2024, MaxMem=   104857600 cpu:               0.0 elap:               0.0
 (Enter /apps/gaussian/g16-c01-avx2/g16/l401.exe)
 ExpMin= 1.69D-01 ExpMax= 1.31D+02 ExpMxC= 1.31D+02 IAcc=3 IRadAn=         5 AccDes= 0.00D+00
 Harris functional with IExCor=  205 and IRadAn=       5 diagonalized for initial guess.
 HarFok:  IExCor=  205 AccDes= 0.00D+00 IRadAn=         5 IDoV= 1 UseB2=F ITyADJ=14
 ICtDFT=  3500011 ScaDFX=  1.000000  1.000000  1.000000  1.000000
 FoFCou: FMM=F IPFlag=           0 FMFlag=      100000 FMFlg1=           0
         NFxFlg=           0 DoJE=T BraDBF=F KetDBF=T FulRan=T
         wScrn=  0.000000 ICntrl=       500 IOpCl=  0 I1Cent=   200000004 NGrid=           0
         NMat0=    1 NMatS0=      1 NMatT0=    0 NMatD0=    1 NMtDS0=    0 NMtDT0=    0
 Petite list used in FoFCou.
 Harris En= -112.373010935562    
 JPrj=0 DoOrth=F DoCkMO=F.
 Initial guess orbital symmetries:
       Occupied  (A') (A') (A') (A') (A") (A') (A') (A")
       Virtual   (A') (A') (A") (A')
 The electronic state of the initial guess is 1-A'.
 Leave Link  401 at Fri Feb 23 11:03:12 2024, MaxMem=   104857600 cpu:               0.1 elap:               0.2
 (Enter /apps/gaussian/g16-c01-avx2/g16/l502.exe)
 Keep R1 ints in memory in symmetry-blocked form, NReq=807525.
 FoFCou: FMM=F IPFlag=           0 FMFlag=           0 FMFlg1=           0
         NFxFlg=           0 DoJE=F BraDBF=F KetDBF=F FulRan=T
         wScrn=  0.000000 ICntrl=       600 IOpCl=  0 I1Cent=           0 NGrid=           0
         NMat0=    1 NMatS0=     78 NMatT0=    0 NMatD0=    1 NMtDS0=    0 NMtDT0=    0
 Petite list used in FoFCou.
 Closed shell SCF:
 Using DIIS extrapolation, IDIIS=  1040.
 NGot=   104857600 LenX=   104854054 LenY=   104853172
 Requested convergence on RMS density matrix=1.00D-08 within 128 cycles.
 Requested convergence on MAX density matrix=1.00D-06.
 Requested convergence on             energy=1.00D-06.
 No special actions if energy rises.

 Cycle   1  Pass 1  IDiag  1:
 E= -112.285244256809    
 DIIS: error= 3.78D-02 at cycle   1 NSaved=   1.
 NSaved= 1 IEnMin= 1 EnMin= -112.285244256809     IErMin= 1 ErrMin= 3.78D-02
 ErrMax= 3.78D-02  0.00D+00 EMaxC= 1.00D-01 BMatC= 1.97D-02 BMatP= 1.97D-02
 IDIUse=3 WtCom= 6.22D-01 WtEn= 3.78D-01
 Coeff-Com:  0.100D+01
 Coeff-En:   0.100D+01
 Coeff:      0.100D+01
 Gap=     0.526 Goal=   None    Shift=    0.000
 GapD=    0.526 DampG=2.000 DampE=0.500 DampFc=1.0000 IDamp=-1.
 RMSDP=1.56D-02 MaxDP=9.00D-02              OVMax= 0.00D+00

 Cycle   2  Pass 1  IDiag  1:
 E= -112.302685992794     Delta-E=       -0.017441735985 Rises=F Damp=F
 DIIS: error= 1.23D-02 at cycle   2 NSaved=   2.
 NSaved= 2 IEnMin= 2 EnMin= -112.302685992794     IErMin= 2 ErrMin= 1.23D-02
 ErrMax= 1.23D-02  0.00D+00 EMaxC= 1.00D-01 BMatC= 3.18D-03 BMatP= 1.97D-02
 IDIUse=3 WtCom= 8.77D-01 WtEn= 1.23D-01
 Coeff-Com:  0.171D+00 0.829D+00
 Coeff-En:   0.000D+00 0.100D+01
 Coeff:      0.150D+00 0.850D+00
 Gap=     0.579 Goal=   None    Shift=    0.000
 RMSDP=6.77D-03 MaxDP=2.93D-02 DE=-1.74D-02 OVMax= 0.00D+00

 Cycle   3  Pass 1  IDiag  1:
 E= -112.305622576265     Delta-E=       -0.002936583470 Rises=F Damp=F
 DIIS: error= 7.62D-03 at cycle   3 NSaved=   3.
 NSaved= 3 IEnMin= 3 EnMin= -112.305622576265     IErMin= 3 ErrMin= 7.62D-03
 ErrMax= 7.62D-03  0.00D+00 EMaxC= 1.00D-01 BMatC= 5.75D-04 BMatP= 3.18D-03
 IDIUse=3 WtCom= 9.24D-01 WtEn= 7.62D-02
 Coeff-Com: -0.456D-01 0.258D+00 0.787D+00
 Coeff-En:   0.000D+00 0.000D+00 0.100D+01
 Coeff:     -0.421D-01 0.239D+00 0.803D+00
 Gap=     0.562 Goal=   None    Shift=    0.000
 RMSDP=2.96D-03 MaxDP=2.12D-02 DE=-2.94D-03 OVMax= 0.00D+00

 Cycle   4  Pass 1  IDiag  1:
 E= -112.306602759119     Delta-E=       -0.000980182855 Rises=F Damp=F
 DIIS: error= 1.67D-03 at cycle   4 NSaved=   4.
 NSaved= 4 IEnMin= 4 EnMin= -112.306602759119     IErMin= 4 ErrMin= 1.67D-03
 ErrMax= 1.67D-03  0.00D+00 EMaxC= 1.00D-01 BMatC= 6.53D-05 BMatP= 5.75D-04
 IDIUse=3 WtCom= 9.83D-01 WtEn= 1.67D-02
 Coeff-Com:  0.225D-01-0.274D+00-0.311D+00 0.156D+01
 Coeff-En:   0.000D+00 0.000D+00 0.000D+00 0.100D+01
 Coeff:      0.221D-01-0.270D+00-0.306D+00 0.155D+01
 Gap=     0.569 Goal=   None    Shift=    0.000
 RMSDP=1.65D-03 MaxDP=6.34D-03 DE=-9.80D-04 OVMax= 0.00D+00

 Cycle   5  Pass 1  IDiag  1:
 E= -112.306780809002     Delta-E=       -0.000178049883 Rises=F Damp=F
 DIIS: error= 4.26D-04 at cycle   5 NSaved=   5.
 NSaved= 5 IEnMin= 5 EnMin= -112.306780809002     IErMin= 5 ErrMin= 4.26D-04
 ErrMax= 4.26D-04  0.00D+00 EMaxC= 1.00D-01 BMatC= 4.46D-06 BMatP= 6.53D-05
 IDIUse=3 WtCom= 9.96D-01 WtEn= 4.26D-03
 Coeff-Com: -0.137D-01 0.197D+00 0.234D+00-0.139D+01 0.197D+01
 Coeff-En:   0.000D+00 0.000D+00 0.000D+00 0.000D+00 0.100D+01
 Coeff:     -0.136D-01 0.196D+00 0.233D+00-0.138D+01 0.197D+01
 Gap=     0.570 Goal=   None    Shift=    0.000
 RMSDP=6.90D-04 MaxDP=2.96D-03 DE=-1.78D-04 OVMax= 0.00D+00

 Cycle   6  Pass 1  IDiag  1:
 E= -112.306800340535     Delta-E=       -0.000019531533 Rises=F Damp=F
 DIIS: error= 6.49D-05 at cycle   6 NSaved=   6.
 NSaved= 6 IEnMin= 6 EnMin= -112.306800340535     IErMin= 6 ErrMin= 6.49D-05
 ErrMax= 6.49D-05  0.00D+00 EMaxC= 1.00D-01 BMatC= 7.38D-08 BMatP= 4.46D-06
 IDIUse=1 WtCom= 1.00D+00 WtEn= 0.00D+00
 Coeff-Com:  0.615D-03-0.106D-01-0.173D-01 0.107D+00-0.245D+00 0.117D+01
 Coeff:      0.615D-03-0.106D-01-0.173D-01 0.107D+00-0.245D+00 0.117D+01
 Gap=     0.570 Goal=   None    Shift=    0.000
 RMSDP=6.24D-05 MaxDP=2.86D-04 DE=-1.95D-05 OVMax= 0.00D+00

 Cycle   7  Pass 1  IDiag  1:
 E= -112.306800603170     Delta-E=       -0.000000262634 Rises=F Damp=F
 DIIS: error= 2.34D-05 at cycle   7 NSaved=   7.
 NSaved= 7 IEnMin= 7 EnMin= -112.306800603170     IErMin= 7 ErrMin= 2.34D-05
 ErrMax= 2.34D-05  0.00D+00 EMaxC= 1.00D-01 BMatC= 1.16D-08 BMatP= 7.38D-08
 IDIUse=1 WtCom= 1.00D+00 WtEn= 0.00D+00
 Coeff-Com:  0.153D-03-0.488D-03 0.851D-03-0.211D-01 0.119D+00-0.101D+01
 Coeff-Com:  0.191D+01
 Coeff:      0.153D-03-0.488D-03 0.851D-03-0.211D-01 0.119D+00-0.101D+01
 Coeff:      0.191D+01
 Gap=     0.570 Goal=   None    Shift=    0.000
 RMSDP=3.19D-05 MaxDP=1.32D-04 DE=-2.63D-07 OVMax= 0.00D+00

 Cycle   8  Pass 1  IDiag  1:
 E= -112.306800662015     Delta-E=       -0.000000058846 Rises=F Damp=F
 DIIS: error= 7.67D-06 at cycle   8 NSaved=   8.
 NSaved= 8 IEnMin= 8 EnMin= -112.306800662015     IErMin= 8 ErrMin= 7.67D-06
 ErrMax= 7.67D-06  0.00D+00 EMaxC= 1.00D-01 BMatC= 1.31D-09 BMatP= 1.16D-08
 IDIUse=1 WtCom= 1.00D+00 WtEn= 0.00D+00
 Coeff-Com: -0.844D-04 0.580D-03-0.703D-03 0.878D-02-0.551D-01 0.507D+00
 Coeff-Com: -0.129D+01 0.183D+01
 Coeff:     -0.844D-04 0.580D-03-0.703D-03 0.878D-02-0.551D-01 0.507D+00
 Coeff:     -0.129D+01 0.183D+01
 Gap=     0.570 Goal=   None    Shift=    0.000
 RMSDP=1.46D-05 MaxDP=5.55D-05 DE=-5.88D-08 OVMax= 0.00D+00

 Cycle   9  Pass 1  IDiag  1:
 E= -112.306800669013     Delta-E=       -0.000000006998 Rises=F Damp=F
 DIIS: error= 6.57D-07 at cycle   9 NSaved=   9.
 NSaved= 9 IEnMin= 9 EnMin= -112.306800669013     IErMin= 9 ErrMin= 6.57D-07
 ErrMax= 6.57D-07  0.00D+00 EMaxC= 1.00D-01 BMatC= 8.22D-12 BMatP= 1.31D-09
 IDIUse=1 WtCom= 1.00D+00 WtEn= 0.00D+00
 Coeff-Com:  0.129D-04-0.102D-03 0.848D-04-0.128D-02 0.853D-02-0.826D-01
 Coeff-Com:  0.221D+00-0.377D+00 0.123D+01
 Coeff:      0.129D-04-0.102D-03 0.848D-04-0.128D-02 0.853D-02-0.826D-01
 Coeff:      0.221D+00-0.377D+00 0.123D+01
 Gap=     0.570 Goal=   None    Shift=    0.000
 RMSDP=8.16D-07 MaxDP=3.14D-06 DE=-7.00D-09 OVMax= 0.00D+00

 Cycle  10  Pass 1  IDiag  1:
 E= -112.306800669044     Delta-E=       -0.000000000030 Rises=F Damp=F
 DIIS: error= 7.49D-08 at cycle  10 NSaved=  10.
 NSaved=10 IEnMin=10 EnMin= -112.306800669044     IErMin=10 ErrMin= 7.49D-08
 ErrMax= 7.49D-08  0.00D+00 EMaxC= 1.00D-01 BMatC= 1.03D-13 BMatP= 8.22D-12
 IDIUse=1 WtCom= 1.00D+00 WtEn= 0.00D+00
 Coeff-Com: -0.174D-05 0.114D-04-0.243D-04 0.312D-03-0.181D-02 0.173D-01
 Coeff-Com: -0.468D-01 0.839D-01-0.355D+00 0.130D+01
 Coeff:     -0.174D-05 0.114D-04-0.243D-04 0.312D-03-0.181D-02 0.173D-01
 Coeff:     -0.468D-01 0.839D-01-0.355D+00 0.130D+01
 Gap=     0.570 Goal=   None    Shift=    0.000
 RMSDP=6.47D-08 MaxDP=2.61D-07 DE=-3.02D-11 OVMax= 0.00D+00

 Cycle  11  Pass 1  IDiag  1:
 E= -112.306800669044     Delta-E=       -0.000000000000 Rises=F Damp=F
 DIIS: error= 5.84D-09 at cycle  11 NSaved=  11.
 NSaved=11 IEnMin=11 EnMin= -112.306800669044     IErMin=11 ErrMin= 5.84D-09
 ErrMax= 5.84D-09  0.00D+00 EMaxC= 1.00D-01 BMatC= 5.36D-16 BMatP= 1.03D-13
 IDIUse=1 WtCom= 1.00D+00 WtEn= 0.00D+00
 Coeff-Com:  0.224D-06-0.830D-06 0.617D-05-0.702D-04 0.371D-03-0.346D-02
 Coeff-Com:  0.926D-02-0.164D-01 0.717D-01-0.289D+00 0.123D+01
 Coeff:      0.224D-06-0.830D-06 0.617D-05-0.702D-04 0.371D-03-0.346D-02
 Coeff:      0.926D-02-0.164D-01 0.717D-01-0.289D+00 0.123D+01
 Gap=     0.570 Goal=   None    Shift=    0.000
 RMSDP=4.12D-09 MaxDP=1.52D-08 DE=-3.69D-13 OVMax= 0.00D+00

 SCF Done:  E(RHF) =  -112.306800669     A.U. after   11 cycles
            NFock= 11  Conv=0.41D-08     -V/T= 2.0095
 KE= 1.112526202908D+02 PE=-3.236812945204D+02 EE= 7.087517335475D+01
 Leave Link  502 at Fri Feb 23 11:03:13 2024, MaxMem=   104857600 cpu:               0.1 elap:               0.0
 (Enter /apps/gaussian/g16-c01-avx2/g16/l801.exe)
 ExpMin= 1.69D-01 ExpMax= 1.31D+02 ExpMxC= 1.31D+02 IAcc=3 IRadAn=         5 AccDes= 0.00D+00
 HarFok:  IExCor=  205 AccDes= 0.00D+00 IRadAn=         5 IDoV=-2 UseB2=F ITyADJ=14
 ICtDFT= 12500011 ScaDFX=  1.000000  1.000000  1.000000  1.000000
 Largest valence mixing into a core orbital is  1.43D-04
 Largest core mixing into a valence orbital is  1.06D-04
 Range of M.O.s used for correlation:     3    12
 NBasis=    12 NAE=     8 NBE=     8 NFC=     2 NFV=     0
 NROrb=     10 NOA=     6 NOB=     6 NVA=     4 NVB=     4
 Leave Link  801 at Fri Feb 23 11:03:14 2024, MaxMem=   104857600 cpu:               0.1 elap:               0.2
 (Enter /apps/gaussian/g16-c01-avx2/g16/l914.exe)
 RHF ground state
 Keep R1, R2, and R3 ints in memory in symmetry-blocked form, NReq=809896.
 FoFCou: FMM=F IPFlag=           0 FMFlag=           0 FMFlg1=           0
         NFxFlg=           0 DoJE=F BraDBF=F KetDBF=F FulRan=T
         wScrn=  0.000000 ICntrl=       600 IOpCl=  0 I1Cent=           0 NGrid=           0
         NMat0=    1 NMatS0=     78 NMatT0=    0 NMatD0=    1 NMtDS0=    0 NMtDT0=    0
 Petite list used in FoFCou.
 MDV=   104857600 DFT=F DoStab=F Mixed=F DoRPA=F DoScal=F NonHer=F
 Making orbital integer symmetry assigments:
 Orbital symmetries:
       Occupied  (A') (A') (A') (A') (A") (A') (A') (A")
       Virtual   (A') (A') (A") (A')
    12 initial guesses have been made.
 Convergence on wavefunction:    0.000001000000000
 Davidson Disk Diagonalization:  ConvIn= 1.00D-06 SkipCon=T Conv= 1.00D-06.
 Max sub-space:    96 roots to seek:    12 dimension of matrix:           48
 Iteration     1 Dimension    12 NMult     0 NNew     12
 CISAX will form    12 AO SS matrices at one time.
 NMat=    12 NSing=    12 JSym2X= 2.
 New state      2 was old state      3
 New state      3 was old state      2
 Excitation Energies [eV] at current iteration:
 Root      1 :     2.736021285737706
 Root      2 :     7.191424935105007
 Root      3 :    10.780147236910214
 Root      4 :    11.085664116190529
 Root      5 :    17.210377713017248
 Root      6 :    17.891855092661949
 Root      7 :    17.962151815203367
 Root      8 :    18.267132884606223
 Root      9 :    18.863866840807823
 Root     10 :    19.215349254130285
 Root     11 :    19.678703209816319
 Root     12 :    27.244528009017927
 Iteration     2 Dimension    24 NMult    12 NNew     12
 CISAX will form    12 AO SS matrices at one time.
 NMat=    12 NSing=    12 JSym2X= 2.
 Root      1 not converged, maximum delta is    0.014865257710669
 Root      2 not converged, maximum delta is    0.054509072103699
 Root      3 not converged, maximum delta is    0.102703459489417
 Excitation Energies [eV] at current iteration:
 Root      1 :     2.725302056005126   Change is   -0.010719229732580
 Root      2 :     7.012668471440038   Change is   -0.178756463664969
 Root      3 :     9.994565476804860   Change is   -0.785581760105353
 Root      4 :    11.071240343338216   Change is   -0.014423772852312
 Root      5 :    16.637047438597435   Change is   -0.573330274419812
 Root      6 :    17.804352625755310   Change is   -0.087502466906638
 Root      7 :    17.938657586093296   Change is   -0.023494229110071
 Root      8 :    18.192416920677577   Change is   -0.074715963928647
 Root      9 :    18.813843924378038   Change is   -0.050022916429787
 Root     10 :    19.002820280369537   Change is   -0.212528973760746
 Root     11 :    19.530903139158273   Change is   -0.147800070658046
 Root     12 :    22.111175378933780
 Convergence achieved on expansion vectors.
 ***********************************************************************
 Excited states from <AA,BB:AA,BB> singles matrix:
 ***********************************************************************
 
 1PDM for each excited state written to RWF  633
 Ground to excited state transition densities written to RWF  633
 Ground to excited state transition electric dipole moments (Au):
       state          X           Y           Z        Dip. S.      Osc.
         1         0.0000     -0.0000      0.1218      0.0148      0.0010
         2         0.1018     -0.2359      0.0000      0.0660      0.0113
         3         0.1957      1.0858     -0.0000      1.2172      0.2980
 Ground to excited state transition velocity dipole moments (Au):
       state          X           Y           Z        Dip. S.      Osc.
         1        -0.0000     -0.0000     -0.0092      0.0001      0.0006
         2        -0.1245     -0.0822     -0.0000      0.0222      0.0575
         3        -0.0130      0.0787     -0.0000      0.0064      0.0115
 Ground to excited state transition magnetic dipole moments (Au):
       state          X           Y           Z
         1        -0.1740      1.0937     -0.0000
         2        -0.0000     -0.0000     -1.5717
         3         0.0000      0.0000     -0.4452
 Ground to excited state transition velocity quadrupole moments (Au):
       state          XX          YY          ZZ          XY          XZ          YZ
         1        -0.0000     -0.0000     -0.0000     -0.0000     -0.0203     -0.0084
         2        -0.0170      0.0231      0.0048      0.0350     -0.0000     -0.0000
         3        -0.1075     -0.2095     -0.1291      0.0876      0.0000     -0.0000
 <0|del|b> * <b|rxdel|0> + <0|del|b> * <b|delr+rdel|0>
 Rotatory Strengths (R) in cgs (10**-40 erg-esu-cm/Gauss)
       state          XX          YY          ZZ    R(velocity)    E-M Angle
         1        -0.0000      0.0000     -0.0000     -0.0000       90.00
         2         0.0000      0.0000     -0.0000      0.0000       90.00
         3         0.0000      0.0000      0.0000      0.0000       90.00
 1/2[<0|r|b>*<b|rxdel|0> + (<0|rxdel|b>*<b|r|0>)*]
 Rotatory Strengths (R) in cgs (10**-40 erg-esu-cm/Gauss)
       state          XX          YY          ZZ     R(length)
         1         0.0000      0.0000      0.0000      0.0000
         2         0.0000     -0.0000      0.0000      0.0000
         3        -0.0000     -0.0000     -0.0000     -0.0000
  1/2[<0|del|b>*<b|r|0> + (<0|r|b>*<b|del|0>)*] (Au)
       state          X           Y           Z        Dip. S.   Osc.(frdel)
         1        -0.0000      0.0000     -0.0011      0.0011      0.0007
         2        -0.0127      0.0194     -0.0000     -0.0067     -0.0045
         3        -0.0026      0.0854      0.0000     -0.0829     -0.0553

 Excitation energies and oscillator strengths:
 
 Excited State   1:      Singlet-A"     2.7253 eV  454.94 nm  f=0.0010  <S**2>=0.000
       5 ->  9         0.16376
       8 ->  9         0.68362
 This state for optimization and/or second-order correction.
 Total Energy, E(CIS/TDA) =  -112.206647661    
 Copying the excited state density for this state as the 1-particle RhoCI density.
 
 Excited State   2:      Singlet-A'     7.0127 eV  176.80 nm  f=0.0113  <S**2>=0.000
       6 ->  9         0.64461
       7 ->  9        -0.26064
 
 Excited State   3:      Singlet-A'     9.9946 eV  124.05 nm  f=0.2980  <S**2>=0.000
       6 ->  9         0.27003
       6 -> 12        -0.21550
       7 ->  9         0.59676
 SavETr:  write IOETrn=   770 NScale= 10 NData=  16 NLR=1 NState=    3 LETran=      64.
 The selected state is a singlet.
 CISGrd: IGrad=2 NXY=1 DFT=F
 CISAX will form     1 AO SS matrices at one time.
 NMat=     1 NSing=     1 JSym2X= 2.
 Leave Link  914 at Fri Feb 23 11:03:14 2024, MaxMem=   104857600 cpu:               0.0 elap:               0.1
 (Enter /apps/gaussian/g16-c01-avx2/g16/l1002.exe)
 Minotr:  Closed shell wavefunction.
          Computing CIS/TDA/TD derivatives.
          Using Z-Vector for PSCF gradient.
          Skipping F1 and S1 gradient terms here.
          IDoAtm=1111
          Frozen-core window.
          Direct CPHF calculation.
          Differentiating once with respect to electric field.
                with respect to dipole field.
          Differentiating once with respect to nuclear coordinates.
          Requested convergence is 1.0D-10 RMS, and 1.0D-09 maximum.
          NewPWx=F KeepS1=T KeepF1=T KeepIn=T MapXYZ=F SortEE=F KeepMc=T.
 Keep R1 ints in memory in symmetry-blocked form, NReq=808106.
 FoFCou: FMM=F IPFlag=           0 FMFlag=           0 FMFlg1=           0
         NFxFlg=           0 DoJE=F BraDBF=F KetDBF=F FulRan=T
         wScrn=  0.000000 ICntrl=       600 IOpCl=  0 I1Cent=           0 NGrid=           0
         NMat0=    1 NMatS0=     78 NMatT0=    0 NMatD0=    1 NMtDS0=    0 NMtDT0=    0
 Petite list used in FoFCou.
          MDV=     104857600 using IRadAn=       5.
          Solving linear equations separately, MaxMat=       0.
          There are     1 degrees of freedom in the 1st order CPHF.  IDoFFX=0 NUNeed=     1.
 LinEq1:  Iter=  0 NonCon=     1 RMS=1.15D-01 Max=5.21D-01 NDo=     1
 AX will form     1 AO Fock derivatives at one time.
 LinEq1:  Iter=  1 NonCon=     1 RMS=1.78D-02 Max=4.98D-02 NDo=     1
 LinEq1:  Iter=  2 NonCon=     1 RMS=2.18D-03 Max=7.10D-03 NDo=     1
 LinEq1:  Iter=  3 NonCon=     1 RMS=3.71D-04 Max=1.33D-03 NDo=     1
 LinEq1:  Iter=  4 NonCon=     1 RMS=3.43D-05 Max=9.63D-05 NDo=     1
 LinEq1:  Iter=  5 NonCon=     1 RMS=4.22D-06 Max=1.85D-05 NDo=     1
 LinEq1:  Iter=  6 NonCon=     1 RMS=6.96D-07 Max=2.07D-06 NDo=     1
 LinEq1:  Iter=  7 NonCon=     1 RMS=6.58D-08 Max=2.18D-07 NDo=     1
 LinEq1:  Iter=  8 NonCon=     1 RMS=4.29D-09 Max=1.23D-08 NDo=     1
 LinEq1:  Iter=  9 NonCon=     1 RMS=5.15D-10 Max=1.34D-09 NDo=     1
 LinEq1:  Iter= 10 NonCon=     0 RMS=2.78D-11 Max=8.78D-11 NDo=     1
 Linear equations converged to 1.000D-10 1.000D-09 after    10 iterations.
 End of Minotr F.D. properties file   721 does not exist.
 End of Minotr F.D. properties file   722 does not exist.
 End of Minotr F.D. properties file   788 does not exist.
 Leave Link 1002 at Fri Feb 23 11:03:15 2024, MaxMem=   104857600 cpu:               0.1 elap:               0.1
 (Enter /apps/gaussian/g16-c01-avx2/g16/l601.exe)
 Copying SCF densities to generalized density rwf, IOpCl= 0 IROHF=0.

 **********************************************************************

            Population analysis using the CI Density.

 **********************************************************************

 Orbital symmetries:
       Occupied  (A') (A') (A') (A') (A") (A') (A') (A")
       Virtual   (A') (A') (A") (A')
 The electronic state is 1-A'.
 Alpha  occ. eigenvalues --  -20.30712 -11.10139  -1.28572  -0.79184  -0.58640
 Alpha  occ. eigenvalues --   -0.51743  -0.39542  -0.35385
 Alpha virt. eigenvalues --    0.21616   0.62284   0.65229   0.77789
          Condensed to atoms (all electrons):
               1          2          3          4
     1  C    5.089215   0.350866   0.350866   0.313587
     2  H    0.350866   0.623035  -0.021289  -0.013597
     3  H    0.350866  -0.021289   0.623035  -0.013597
     4  O    0.313587  -0.013597  -0.013597   7.731042
 Mulliken charges:
               1
     1  C   -0.104534
     2  H    0.060985
     3  H    0.060985
     4  O   -0.017435
 Sum of Mulliken charges =   0.00000
 Mulliken charges with hydrogens summed into heavy atoms:
               1
     1  C    0.017435
     4  O   -0.017435
 Electronic spatial extent (au):  <R**2>=             62.2530
 Charge=              0.0000 electrons
 Dipole moment (field-independent basis, Debye):
    X=             -0.8158    Y=              0.2778    Z=              0.0000  Tot=              0.8618
 Quadrupole moment (field-independent basis, Debye-Ang):
   XX=            -11.2227   YY=            -11.3904   ZZ=             -9.7359
   XY=             -0.7296   XZ=              0.0000   YZ=             -0.0000
 Traceless Quadrupole moment (field-independent basis, Debye-Ang):
   XX=             -0.4397   YY=             -0.6073   ZZ=              1.0471
   XY=             -0.7296   XZ=              0.0000   YZ=             -0.0000
 Octapole moment (field-independent basis, Debye-Ang**2):
  XXX=             -0.0974  YYY=             -3.7399  ZZZ=              0.0000  XYY=             -0.8464
  XXY=             -1.7067  XXZ=              0.0000  XZZ=             -0.4722  YZZ=             -0.9783
  YYZ=              0.0000  XYZ=             -0.0000
 Hexadecapole moment (field-independent basis, Debye-Ang**3):
 XXXX=             -9.4163 YYYY=            -42.4323 ZZZZ=            -14.1080 XXXY=              1.7406
 XXXZ=             -0.0000 YYYX=              1.1573 YYYZ=             -0.0000 ZZZX=              0.0000
 ZZZY=              0.0000 XXYY=             -8.6958 XXZZ=             -3.8727 YYZZ=             -8.2274
 XXYZ=             -0.0000 YYXZ=             -0.0000 ZZXY=             -0.0629
 N-N= 2.924670020578D+01 E-N=-3.234191163182D+02  KE= 1.113176522936D+02
 Symmetry A'   KE= 1.068842933968D+02
 Symmetry A"   KE= 4.433358896830D+00
 No NMR shielding tensors so no spin-rotation constants.
 Leave Link  601 at Fri Feb 23 11:03:15 2024, MaxMem=   104857600 cpu:               0.1 elap:               0.1
 (Enter /apps/gaussian/g16-c01-avx2/g16/l701.exe)
 ... and contract with generalized density number  6.
 Compute integral first derivatives.
 Leave Link  701 at Fri Feb 23 11:03:16 2024, MaxMem=   104857600 cpu:               0.1 elap:               0.1
 (Enter /apps/gaussian/g16-c01-avx2/g16/l702.exe)
 L702 exits ... SP integral derivatives will be done elsewhere.
 Leave Link  702 at Fri Feb 23 11:03:16 2024, MaxMem=   104857600 cpu:               0.0 elap:               0.0
 (Enter /apps/gaussian/g16-c01-avx2/g16/l703.exe)
 Integral derivatives from FoFJK, PRISM(SPDF).
 Compute integral first derivatives, UseDBF=F ICtDFT=           0.
 Calling FoFJK, ICntrl=  10005127 FMM=F ISym2X=1 I1Cent= 0 IOpClX= 0 NMat=1 NMatS=1 NMatT=0.
 FoFJK:  IHMeth= 1 ICntrl=10005127 DoSepK=F KAlg= 0 I1Cent=           0 FoldK=F
 IRaf=         0 NMat=       1 IRICut=       1 DoRegI=T DoRafI=F ISym2E= 1 IDoP0=0 IntGTp=1.
 FoFCou: FMM=F IPFlag=           0 FMFlag=      100000 FMFlg1=         800
         NFxFlg=           0 DoJE=F BraDBF=F KetDBF=F FulRan=T
         wScrn=  0.000000 ICntrl=  10005127 IOpCl=  0 I1Cent=           0 NGrid=           0
         NMat0=    1 NMatS0=      1 NMatT0=    0 NMatD0=    1 NMtDS0=    0 NMtDT0=    0
 Petite list used in FoFCou.
 Leave Link  703 at Fri Feb 23 11:03:17 2024, MaxMem=   104857600 cpu:               0.0 elap:               0.1
 (Enter /apps/gaussian/g16-c01-avx2/g16/l716.exe)
 Dipole        =-3.20970515D-01 1.09279461D-01-1.67204570D-31
 ***** Axes restored to original set *****
 -------------------------------------------------------------------
 Center     Atomic                   Forces (Hartrees/Bohr)
 Number     Number              X              Y              Z
 -------------------------------------------------------------------
      1        6           0.042971734   -0.000000000   -0.053806628
      2        1          -0.021402695    0.035390489    0.026150830
      3        1          -0.021402695   -0.035390489    0.026150830
      4        8          -0.000166343    0.000000000    0.001504968
 -------------------------------------------------------------------
 Cartesian Forces:  Max     0.053806628 RMS     0.028185208
 Leave Link  716 at Fri Feb 23 11:03:18 2024, MaxMem=   104857600 cpu:               0.0 elap:               0.0
 (Enter /apps/gaussian/g16-c01-avx2/g16/l103.exe)

 GradGradGradGradGradGradGradGradGradGradGradGradGradGradGradGradGradGrad
 Berny optimization.
 FormGI is forming the generalized inverse of G from B-inverse, IUseBI=4.
 Internal  Forces:  Max     0.048432211 RMS     0.026247224
 Search for a local minimum.
 Step number   1 out of a maximum of   20
 All quantities printed in internal units (Hartrees-Bohrs-Radians)
 RMS Force = .26247D-01 SwitMx=.10000D-02 MixMth= 1
 Mixed Optimization -- RFO/linear search
 Second derivative matrix not updated -- first step.
 The second derivative matrix:
                          R1        R2        R3        A1        A2
           R1           0.28026
           R2           0.00000   0.28026
           R3           0.00000   0.00000   0.64936
           A1           0.00000   0.00000   0.00000   0.16000
           A2           0.00000   0.00000   0.00000   0.00000   0.16000
           A3           0.00000   0.00000   0.00000   0.00000   0.00000
           D1           0.00000   0.00000   0.00000   0.00000   0.00000
                          A3        D1
           A3           0.16000
           D1           0.00000   0.02905
 ITU=  0
     Eigenvalues ---    0.05534   0.16000   0.16000   0.28026   0.28026
     Eigenvalues ---    0.64936
 RFO step:  Lambda=-1.67765871D-02 EMin= 5.53393106D-02
 Linear search not attempted -- first point.
 Iteration  1 RMS(Cart)=  0.07192144 RMS(Int)=  0.00261556
 Iteration  2 RMS(Cart)=  0.00260394 RMS(Int)=  0.00005083
 Iteration  3 RMS(Cart)=  0.00000351 RMS(Int)=  0.00005063
 Iteration  4 RMS(Cart)=  0.00000000 RMS(Int)=  0.00005063
 ITry= 1 IFail=0 DXMaxC= 9.65D-02 DCOld= 1.00D+10 DXMaxT= 3.00D-01 DXLimC= 3.00D+00 Rises=F
 ClnCor:  largest displacement from symmetrization is 1.48D-15 for atom     1.
 Variable       Old X    -DE/DX   Delta X   Delta X   Delta X     New X
                                 (Linear)    (Quad)   (Total)
    R1        2.18782  -0.04843   0.00000  -0.16305  -0.16305   2.02477
    R2        2.18782  -0.04843   0.00000  -0.16305  -0.16305   2.02477
    R3        2.47236   0.00149   0.00000   0.00223   0.00223   2.47459
    A1        1.90315   0.00856   0.00000   0.06331   0.06322   1.96637
    A2        2.00816  -0.00395   0.00000  -0.01258  -0.01264   1.99552
    A3        2.00816  -0.00395   0.00000  -0.01258  -0.01264   1.99552
    D1        2.23472   0.00494   0.00000   0.06846   0.06852   2.30323
         Item               Value     Threshold  Converged?
 Maximum Force            0.048432     0.000450     NO 
 RMS     Force            0.026247     0.000300     NO 
 Maximum Displacement     0.096460     0.001800     NO 
 RMS     Displacement     0.072672     0.001200     NO 
 Predicted change in Energy=-8.910487D-03
 Lowest energy point so far.  Saving SCF results.
 GradGradGradGradGradGradGradGradGradGradGradGradGradGradGradGradGradGrad

 Leave Link  103 at Fri Feb 23 11:03:18 2024, MaxMem=   104857600 cpu:               0.0 elap:               0.0
 (Enter /apps/gaussian/g16-c01-avx2/g16/l202.exe)
                          Input orientation:                          
 ---------------------------------------------------------------------
 Center     Atomic      Atomic             Coordinates (Angstroms)
 Number     Number       Type             X           Y           Z
 ---------------------------------------------------------------------
      1          6           0       -0.047310   -0.000000   -0.618235
      2          1           0        0.325773   -0.891743   -1.080441
      3          1           0        0.325773    0.891743   -1.080441
      4          8           0        0.022964    0.000000    0.689375
 ---------------------------------------------------------------------
                    Distance matrix (angstroms):
                    1          2          3          4
     1  C    0.000000
     2  H    1.071462   0.000000
     3  H    1.071462   1.783487   0.000000
     4  O    1.309497   2.004781   2.004781   0.000000
 Stoichiometry    CH2O
 Framework group  CS[SG(CO),X(H2)]
 Deg. of freedom     4
 Full point group                 CS      NOp   2
 RotChk:  IX=0 Diff= 3.01D-02
 Largest Abelian subgroup         CS      NOp   2
 Largest concise Abelian subgroup CS      NOp   2
                         Standard orientation:                         
 ---------------------------------------------------------------------
 Center     Atomic      Atomic             Coordinates (Angstroms)
 Number     Number       Type             X           Y           Z
 ---------------------------------------------------------------------
      1          6           0        0.049669    0.599559    0.000000
      2          1           0       -0.347681    1.041077    0.891743
      3          1           0       -0.347681    1.041077   -0.891743
      4          8           0        0.049669   -0.709938   -0.000000
 ---------------------------------------------------------------------
 Rotational constants (GHZ):         274.0667179          34.3442900          31.4353056
 Leave Link  202 at Fri Feb 23 11:03:18 2024, MaxMem=   104857600 cpu:               0.0 elap:               0.0
 (Enter /apps/gaussian/g16-c01-avx2/g16/l301.exe)
 Standard basis: STO-3G (5D, 7F)
 Ernie: Thresh=  0.10000D-02 Tol=  0.10000D-05 Strict=F.
 There are     9 symmetry adapted cartesian basis functions of A'  symmetry.
 There are     3 symmetry adapted cartesian basis functions of A"  symmetry.
 There are     9 symmetry adapted basis functions of A'  symmetry.
 There are     3 symmetry adapted basis functions of A"  symmetry.
    12 basis functions,    36 primitive gaussians,    12 cartesian basis functions
     8 alpha electrons        8 beta electrons
       nuclear repulsion energy        29.8437783105 Hartrees.
 IExCor=    0 DFT=F Ex=HF Corr=None ExCW=0 ScaHFX=  1.000000
 ScaDFX=  1.000000  1.000000  1.000000  1.000000 ScalE2=  1.000000  1.000000
 IRadAn=      5 IRanWt=     -1 IRanGd=            0 ICorTp=0 IEmpDi=  4
 NAtoms=    4 NActive=    4 NUniq=    3 SFac= 1.78D+00 NAtFMM=   60 NAOKFM=F Big=F
 Integral buffers will be    131072 words long.
 Raffenetti 1 integral format.
 Two-electron integral symmetry is turned on.
 Leave Link  301 at Fri Feb 23 11:03:18 2024, MaxMem=   104857600 cpu:               0.0 elap:               0.0
 (Enter /apps/gaussian/g16-c01-avx2/g16/l302.exe)
 NPDir=0 NMtPBC=     1 NCelOv=     1 NCel=       1 NClECP=     1 NCelD=      1
         NCelK=      1 NCelE2=     1 NClLst=     1 CellRange=     0.0.
 One-electron integrals computed using PRISM.
 One-electron integral symmetry used in STVInt
 NBasis=    12 RedAO= T EigKep=  2.43D-01  NBF=     9     3
 NBsUse=    12 1.00D-06 EigRej= -1.00D+00 NBFU=     9     3
 Leave Link  302 at Fri Feb 23 11:03:18 2024, MaxMem=   104857600 cpu:               0.0 elap:               0.0
 (Enter /apps/gaussian/g16-c01-avx2/g16/l303.exe)
 DipDrv:  MaxL=1.
 Leave Link  303 at Fri Feb 23 11:03:18 2024, MaxMem=   104857600 cpu:               0.0 elap:               0.0
 (Enter /apps/gaussian/g16-c01-avx2/g16/l308.exe)
 Leave Link  308 at Fri Feb 23 11:03:18 2024, MaxMem=   104857600 cpu:               0.0 elap:               0.0
 (Enter /apps/gaussian/g16-c01-avx2/g16/l401.exe)
 Initial guess from the checkpoint file:  "manual_displacement_opt.chk"
 B after Tr=     0.000000   -0.000000   -0.000000
         Rot=    0.999985    0.000000   -0.000000    0.005458 Ang=   0.63 deg.
 Guess basis will be translated and rotated to current coordinates.
 JPrj=2 DoOrth=T DoCkMO=T.
 Initial guess orbital symmetries:
       Occupied  (A') (A') (A') (A') (A") (A') (A') (A")
       Virtual   (A') (A') (A") (A')
 The electronic state of the initial guess is 1-A'.
 Generating alternative initial guess.
 ExpMin= 1.69D-01 ExpMax= 1.31D+02 ExpMxC= 1.31D+02 IAcc=3 IRadAn=         5 AccDes= 0.00D+00
 Harris functional with IExCor=  205 and IRadAn=       5 diagonalized for initial guess.
 HarFok:  IExCor=  205 AccDes= 0.00D+00 IRadAn=         5 IDoV= 1 UseB2=F ITyADJ=14
 ICtDFT=  3500011 ScaDFX=  1.000000  1.000000  1.000000  1.000000
 FoFCou: FMM=F IPFlag=           0 FMFlag=      100000 FMFlg1=           0
         NFxFlg=           0 DoJE=T BraDBF=F KetDBF=T FulRan=T
         wScrn=  0.000000 ICntrl=       500 IOpCl=  0 I1Cent=   200000004 NGrid=           0
         NMat0=    1 NMatS0=      1 NMatT0=    0 NMatD0=    1 NMtDS0=    0 NMtDT0=    0
 Petite list used in FoFCou.
 Harris En= -112.374320543952    
 Leave Link  401 at Fri Feb 23 11:03:18 2024, MaxMem=   104857600 cpu:               0.1 elap:               0.1
 (Enter /apps/gaussian/g16-c01-avx2/g16/l502.exe)
 Keep R1 ints in memory in symmetry-blocked form, NReq=807511.
 FoFCou: FMM=F IPFlag=           0 FMFlag=           0 FMFlg1=           0
         NFxFlg=           0 DoJE=F BraDBF=F KetDBF=F FulRan=T
         wScrn=  0.000000 ICntrl=       600 IOpCl=  0 I1Cent=           0 NGrid=           0
         NMat0=    1 NMatS0=     78 NMatT0=    0 NMatD0=    1 NMtDS0=    0 NMtDT0=    0
 Petite list used in FoFCou.
 Closed shell SCF:
 Using DIIS extrapolation, IDIIS=  1040.
 NGot=   104857600 LenX=   104854054 LenY=   104853172
 Requested convergence on RMS density matrix=1.00D-08 within 128 cycles.
 Requested convergence on MAX density matrix=1.00D-06.
 Requested convergence on             energy=1.00D-06.
 No special actions if energy rises.

 Cycle   1  Pass 1  IDiag  1:
 E= -112.312156667261    
 DIIS: error= 5.91D-03 at cycle   1 NSaved=   1.
 NSaved= 1 IEnMin= 1 EnMin= -112.312156667261     IErMin= 1 ErrMin= 5.91D-03
 ErrMax= 5.91D-03  0.00D+00 EMaxC= 1.00D-01 BMatC= 4.92D-04 BMatP= 4.92D-04
 IDIUse=3 WtCom= 9.41D-01 WtEn= 5.91D-02
 Coeff-Com:  0.100D+01
 Coeff-En:   0.100D+01
 Coeff:      0.100D+01
 Gap=     0.581 Goal=   None    Shift=    0.000
 GapD=    0.581 DampG=2.000 DampE=1.000 DampFc=2.0000 IDamp=-1.
 RMSDP=3.03D-03 MaxDP=1.38D-02              OVMax= 0.00D+00

 Cycle   2  Pass 1  IDiag  1:
 E= -112.312808293967     Delta-E=       -0.000651626706 Rises=F Damp=F
 DIIS: error= 1.88D-03 at cycle   2 NSaved=   2.
 NSaved= 2 IEnMin= 2 EnMin= -112.312808293967     IErMin= 2 ErrMin= 1.88D-03
 ErrMax= 1.88D-03  0.00D+00 EMaxC= 1.00D-01 BMatC= 8.98D-05 BMatP= 4.92D-04
 IDIUse=3 WtCom= 9.81D-01 WtEn= 1.88D-02
 Coeff-Com:  0.144D+00 0.856D+00
 Coeff-En:   0.000D+00 0.100D+01
 Coeff:      0.141D+00 0.859D+00
 Gap=     0.585 Goal=   None    Shift=    0.000
 RMSDP=1.32D-03 MaxDP=6.90D-03 DE=-6.52D-04 OVMax= 0.00D+00

 Cycle   3  Pass 1  IDiag  1:
 E= -112.312907867033     Delta-E=       -0.000099573067 Rises=F Damp=F
 DIIS: error= 1.05D-03 at cycle   3 NSaved=   3.
 NSaved= 3 IEnMin= 3 EnMin= -112.312907867033     IErMin= 3 ErrMin= 1.05D-03
 ErrMax= 1.05D-03  0.00D+00 EMaxC= 1.00D-01 BMatC= 1.58D-05 BMatP= 8.98D-05
 IDIUse=3 WtCom= 9.89D-01 WtEn= 1.05D-02
 Coeff-Com: -0.113D+00 0.218D+00 0.895D+00
 Coeff-En:   0.000D+00 0.000D+00 0.100D+01
 Coeff:     -0.112D+00 0.216D+00 0.896D+00
 Gap=     0.584 Goal=   None    Shift=    0.000
 RMSDP=5.20D-04 MaxDP=3.13D-03 DE=-9.96D-05 OVMax= 0.00D+00

 Cycle   4  Pass 1  IDiag  1:
 E= -112.312934883043     Delta-E=       -0.000027016010 Rises=F Damp=F
 DIIS: error= 1.98D-04 at cycle   4 NSaved=   4.
 NSaved= 4 IEnMin= 4 EnMin= -112.312934883043     IErMin= 4 ErrMin= 1.98D-04
 ErrMax= 1.98D-04  0.00D+00 EMaxC= 1.00D-01 BMatC= 7.12D-07 BMatP= 1.58D-05
 IDIUse=3 WtCom= 9.98D-01 WtEn= 1.98D-03
 Coeff-Com:  0.216D-01-0.118D+00-0.145D+00 0.124D+01
 Coeff-En:   0.000D+00 0.000D+00 0.000D+00 0.100D+01
 Coeff:      0.215D-01-0.118D+00-0.145D+00 0.124D+01
 Gap=     0.584 Goal=   None    Shift=    0.000
 RMSDP=1.57D-04 MaxDP=6.82D-04 DE=-2.70D-05 OVMax= 0.00D+00

 Cycle   5  Pass 1  IDiag  1:
 E= -112.312936641132     Delta-E=       -0.000001758089 Rises=F Damp=F
 DIIS: error= 8.38D-05 at cycle   5 NSaved=   5.
 NSaved= 5 IEnMin= 5 EnMin= -112.312936641132     IErMin= 5 ErrMin= 8.38D-05
 ErrMax= 8.38D-05  0.00D+00 EMaxC= 1.00D-01 BMatC= 1.08D-07 BMatP= 7.12D-07
 IDIUse=1 WtCom= 1.00D+00 WtEn= 0.00D+00
 Coeff-Com: -0.191D-01 0.112D+00 0.180D+00-0.162D+01 0.235D+01
 Coeff:     -0.191D-01 0.112D+00 0.180D+00-0.162D+01 0.235D+01
 Gap=     0.584 Goal=   None    Shift=    0.000
 RMSDP=1.14D-04 MaxDP=4.89D-04 DE=-1.76D-06 OVMax= 0.00D+00

 Cycle   6  Pass 1  IDiag  1:
 E= -112.312937145609     Delta-E=       -0.000000504476 Rises=F Damp=F
 DIIS: error= 1.17D-05 at cycle   6 NSaved=   6.
 NSaved= 6 IEnMin= 6 EnMin= -112.312937145609     IErMin= 6 ErrMin= 1.17D-05
 ErrMax= 1.17D-05  0.00D+00 EMaxC= 1.00D-01 BMatC= 2.11D-09 BMatP= 1.08D-07
 IDIUse=1 WtCom= 1.00D+00 WtEn= 0.00D+00
 Coeff-Com:  0.998D-02-0.590D-01-0.959D-01 0.873D+00-0.136D+01 0.163D+01
 Coeff:      0.998D-02-0.590D-01-0.959D-01 0.873D+00-0.136D+01 0.163D+01
 Gap=     0.584 Goal=   None    Shift=    0.000
 RMSDP=1.71D-05 MaxDP=6.31D-05 DE=-5.04D-07 OVMax= 0.00D+00

 Cycle   7  Pass 1  IDiag  1:
 E= -112.312937158022     Delta-E=       -0.000000012414 Rises=F Damp=F
 DIIS: error= 2.25D-06 at cycle   7 NSaved=   7.
 NSaved= 7 IEnMin= 7 EnMin= -112.312937158022     IErMin= 7 ErrMin= 2.25D-06
 ErrMax= 2.25D-06  0.00D+00 EMaxC= 1.00D-01 BMatC= 1.53D-10 BMatP= 2.11D-09
 IDIUse=1 WtCom= 1.00D+00 WtEn= 0.00D+00
 Coeff-Com: -0.437D-02 0.265D-01 0.409D-01-0.387D+00 0.608D+00-0.819D+00
 Coeff-Com:  0.154D+01
 Coeff:     -0.437D-02 0.265D-01 0.409D-01-0.387D+00 0.608D+00-0.819D+00
 Coeff:      0.154D+01
 Gap=     0.584 Goal=   None    Shift=    0.000
 RMSDP=3.07D-06 MaxDP=1.51D-05 DE=-1.24D-08 OVMax= 0.00D+00

 Cycle   8  Pass 1  IDiag  1:
 E= -112.312937158700     Delta-E=       -0.000000000678 Rises=F Damp=F
 DIIS: error= 1.13D-06 at cycle   8 NSaved=   8.
 NSaved= 8 IEnMin= 8 EnMin= -112.312937158700     IErMin= 8 ErrMin= 1.13D-06
 ErrMax= 1.13D-06  0.00D+00 EMaxC= 1.00D-01 BMatC= 2.46D-11 BMatP= 1.53D-10
 IDIUse=1 WtCom= 1.00D+00 WtEn= 0.00D+00
 Coeff-Com:  0.979D-03-0.596D-02-0.925D-02 0.883D-01-0.140D+00 0.234D+00
 Coeff-Com: -0.987D+00 0.182D+01
 Coeff:      0.979D-03-0.596D-02-0.925D-02 0.883D-01-0.140D+00 0.234D+00
 Coeff:     -0.987D+00 0.182D+01
 Gap=     0.584 Goal=   None    Shift=    0.000
 RMSDP=1.73D-06 MaxDP=7.64D-06 DE=-6.78D-10 OVMax= 0.00D+00

 Cycle   9  Pass 1  IDiag  1:
 E= -112.312937158815     Delta-E=       -0.000000000115 Rises=F Damp=F
 DIIS: error= 1.16D-07 at cycle   9 NSaved=   9.
 NSaved= 9 IEnMin= 9 EnMin= -112.312937158815     IErMin= 9 ErrMin= 1.16D-07
 ErrMax= 1.16D-07  0.00D+00 EMaxC= 1.00D-01 BMatC= 2.11D-13 BMatP= 2.46D-11
 IDIUse=1 WtCom= 1.00D+00 WtEn= 0.00D+00
 Coeff-Com: -0.165D-03 0.101D-02 0.154D-02-0.151D-01 0.241D-01-0.456D-01
 Coeff-Com:  0.258D+00-0.566D+00 0.134D+01
 Coeff:     -0.165D-03 0.101D-02 0.154D-02-0.151D-01 0.241D-01-0.456D-01
 Coeff:      0.258D+00-0.566D+00 0.134D+01
 Gap=     0.584 Goal=   None    Shift=    0.000
 RMSDP=1.24D-07 MaxDP=4.56D-07 DE=-1.15D-10 OVMax= 0.00D+00

 Cycle  10  Pass 1  IDiag  1:
 E= -112.312937158816     Delta-E=       -0.000000000001 Rises=F Damp=F
 DIIS: error= 1.19D-08 at cycle  10 NSaved=  10.
 NSaved=10 IEnMin=10 EnMin= -112.312937158816     IErMin=10 ErrMin= 1.19D-08
 ErrMax= 1.19D-08  0.00D+00 EMaxC= 1.00D-01 BMatC= 1.14D-15 BMatP= 2.11D-13
 IDIUse=1 WtCom= 1.00D+00 WtEn= 0.00D+00
 Coeff-Com:  0.186D-04-0.115D-03-0.173D-03 0.174D-02-0.279D-02 0.595D-02
 Coeff-Com: -0.401D-01 0.931D-01-0.265D+00 0.121D+01
 Coeff:      0.186D-04-0.115D-03-0.173D-03 0.174D-02-0.279D-02 0.595D-02
 Coeff:     -0.401D-01 0.931D-01-0.265D+00 0.121D+01
 Gap=     0.584 Goal=   None    Shift=    0.000
 RMSDP=7.30D-09 MaxDP=3.25D-08 DE=-7.11D-13 OVMax= 0.00D+00

 SCF Done:  E(RHF) =  -112.312937159     A.U. after   10 cycles
            NFock= 10  Conv=0.73D-08     -V/T= 2.0086
 KE= 1.113553803845D+02 PE=-3.248429792088D+02 EE= 7.133088335492D+01
 Leave Link  502 at Fri Feb 23 11:03:18 2024, MaxMem=   104857600 cpu:               0.1 elap:               0.0
 (Enter /apps/gaussian/g16-c01-avx2/g16/l801.exe)
 ExpMin= 1.69D-01 ExpMax= 1.31D+02 ExpMxC= 1.31D+02 IAcc=3 IRadAn=         5 AccDes= 0.00D+00
 HarFok:  IExCor=  205 AccDes= 0.00D+00 IRadAn=         5 IDoV=-2 UseB2=F ITyADJ=14
 ICtDFT= 12500011 ScaDFX=  1.000000  1.000000  1.000000  1.000000
 Largest valence mixing into a core orbital is  1.45D-04
 Largest core mixing into a valence orbital is  1.07D-04
 Range of M.O.s used for correlation:     3    12
 NBasis=    12 NAE=     8 NBE=     8 NFC=     2 NFV=     0
 NROrb=     10 NOA=     6 NOB=     6 NVA=     4 NVB=     4
 Leave Link  801 at Fri Feb 23 11:03:18 2024, MaxMem=   104857600 cpu:               0.1 elap:               0.1
 (Enter /apps/gaussian/g16-c01-avx2/g16/l914.exe)
 RHF ground state
 Keep R1, R2, and R3 ints in memory in symmetry-blocked form, NReq=809882.
 FoFCou: FMM=F IPFlag=           0 FMFlag=           0 FMFlg1=           0
         NFxFlg=           0 DoJE=F BraDBF=F KetDBF=F FulRan=T
         wScrn=  0.000000 ICntrl=       600 IOpCl=  0 I1Cent=           0 NGrid=           0
         NMat0=    1 NMatS0=     78 NMatT0=    0 NMatD0=    1 NMtDS0=    0 NMtDT0=    0
 Petite list used in FoFCou.
 MDV=   104857600 DFT=F DoStab=F Mixed=F DoRPA=F DoScal=F NonHer=F
 Making orbital integer symmetry assigments:
 Orbital symmetries:
       Occupied  (A') (A') (A') (A') (A") (A') (A') (A")
       Virtual   (A') (A') (A") (A')
 Generating guess from densities on rwf.
 Convergence on wavefunction:    0.000001000000000
 Davidson Disk Diagonalization:  ConvIn= 1.00D-06 SkipCon=T Conv= 1.00D-06.
 Max sub-space:    96 roots to seek:     3 dimension of matrix:           48
 Iteration     1 Dimension     3 NMult     0 NNew      3
 CISAX will form     3 AO SS matrices at one time.
 NMat=     3 NSing=     3 JSym2X= 2.
 Excitation Energies [eV] at current iteration:
 Root      1 :     2.721747347132966
 Root      2 :     7.075924139481149
 Root      3 :    10.180438213718237
 Iteration     2 Dimension     6 NMult     3 NNew      3
 CISAX will form     3 AO SS matrices at one time.
 NMat=     3 NSing=     3 JSym2X= 2.
 Root      1 not converged, maximum delta is    0.015698002709542
 Root      2 not converged, maximum delta is    0.014837216601731
 Root      3 not converged, maximum delta is    0.029181397984634
 Excitation Energies [eV] at current iteration:
 Root      1 :     2.708339403145325   Change is   -0.013407943987641
 Root      2 :     7.058811324583849   Change is   -0.017112814897300
 Root      3 :    10.143534979783935   Change is   -0.036903233934303
 Iteration     3 Dimension     9 NMult     6 NNew      3
 CISAX will form     3 AO SS matrices at one time.
 NMat=     3 NSing=     3 JSym2X= 2.
 Root      1 not converged, maximum delta is    0.004132052880178
 Root      2 not converged, maximum delta is    0.001202129437119
 Root      3 not converged, maximum delta is    0.004926910089457
 Excitation Energies [eV] at current iteration:
 Root      1 :     2.707790806054589   Change is   -0.000548597090736
 Root      2 :     7.058590534151937   Change is   -0.000220790431912
 Root      3 :    10.142017577806868   Change is   -0.001517401977066
 Iteration     4 Dimension    12 NMult     9 NNew      3
 CISAX will form     3 AO SS matrices at one time.
 NMat=     3 NSing=     3 JSym2X= 2.
 Root      1 not converged, maximum delta is    0.000186644393149
 Root      2 not converged, maximum delta is    0.000229069534589
 Root      3 not converged, maximum delta is    0.001207238057064
 Excitation Energies [eV] at current iteration:
 Root      1 :     2.707787799617666   Change is   -0.000003006436922
 Root      2 :     7.058586408358836   Change is   -0.000004125793102
 Root      3 :    10.141918697171167   Change is   -0.000098880635701
 Iteration     5 Dimension    15 NMult    12 NNew      3
 CISAX will form     3 AO SS matrices at one time.
 NMat=     3 NSing=     3 JSym2X= 2.
 Root      1 not converged, maximum delta is    0.000031614320095
 Root      2 not converged, maximum delta is    0.000013015988040
 Root      3 not converged, maximum delta is    0.000404864618262
 Excitation Energies [eV] at current iteration:
 Root      1 :     2.707787720301457   Change is   -0.000000079316209
 Root      2 :     7.058586374421934   Change is   -0.000000033936901
 Root      3 :    10.141912249597821   Change is   -0.000006447573345
 Iteration     6 Dimension    18 NMult    15 NNew      3
 CISAX will form     3 AO SS matrices at one time.
 NMat=     3 NSing=     3 JSym2X= 2.
 Root      1 not converged, maximum delta is    0.000005798611865
 Root      2 not converged, maximum delta is    0.000001300984522
 Root      3 not converged, maximum delta is    0.000019157555209
 Excitation Energies [eV] at current iteration:
 Root      1 :     2.707787716976346   Change is   -0.000000003325111
 Root      2 :     7.058586374221209   Change is   -0.000000000200726
 Root      3 :    10.141912210450021   Change is   -0.000000039147800
 Iteration     7 Dimension    20 NMult    18 NNew      2
 CISAX will form     2 AO SS matrices at one time.
 NMat=     2 NSing=     2 JSym2X= 2.
 Root      1 has converged.
 Root      2 has converged.
 Root      3 has converged.
 Excitation Energies [eV] at current iteration:
 Root      1 :     2.707787716957585   Change is   -0.000000000018761
 Root      2 :     7.058586374221202   Change is   -0.000000000000006
 Root      3 :    10.141912210416795   Change is   -0.000000000033226
 Convergence achieved on expansion vectors.
 ***********************************************************************
 Excited states from <AA,BB:AA,BB> singles matrix:
 ***********************************************************************
 
 1PDM for each excited state written to RWF  633
 Ground to excited state transition densities written to RWF  633
 Ground to excited state transition electric dipole moments (Au):
       state          X           Y           Z        Dip. S.      Osc.
         1         0.0000     -0.0000      0.0846      0.0072      0.0005
         2         0.1293     -0.2236     -0.0000      0.0667      0.0115
         3         0.2003      1.1027      0.0000      1.2561      0.3121
 Ground to excited state transition velocity dipole moments (Au):
       state          X           Y           Z        Dip. S.      Osc.
         1         0.0000      0.0000     -0.0071      0.0001      0.0003
         2        -0.1280     -0.0742      0.0000      0.0219      0.0563
         3        -0.0175      0.0877      0.0000      0.0080      0.0143
 Ground to excited state transition magnetic dipole moments (Au):
       state          X           Y           Z
         1        -0.1511      1.1161     -0.0000
         2        -0.0000      0.0000     -1.6001
         3        -0.0000     -0.0000     -0.3860
 Ground to excited state transition velocity quadrupole moments (Au):
       state          XX          YY          ZZ          XY          XZ          YZ
         1        -0.0000     -0.0000     -0.0000      0.0000     -0.0200     -0.0052
         2        -0.0176      0.0135      0.0026      0.0384      0.0000      0.0000
         3        -0.1020     -0.2058     -0.1234      0.0698      0.0000      0.0000
 <0|del|b> * <b|rxdel|0> + <0|del|b> * <b|delr+rdel|0>
 Rotatory Strengths (R) in cgs (10**-40 erg-esu-cm/Gauss)
       state          XX          YY          ZZ    R(velocity)    E-M Angle
         1         0.0000     -0.0000      0.0000      0.0000       90.00
         2        -0.0000     -0.0000      0.0000     -0.0000       90.00
         3        -0.0000     -0.0000     -0.0000     -0.0000       90.00
 1/2[<0|r|b>*<b|rxdel|0> + (<0|rxdel|b>*<b|r|0>)*]
 Rotatory Strengths (R) in cgs (10**-40 erg-esu-cm/Gauss)
       state          XX          YY          ZZ     R(length)
         1         0.0000      0.0000      0.0000      0.0000
         2         0.0000      0.0000     -0.0000     -0.0000
         3         0.0000      0.0000      0.0000      0.0000
  1/2[<0|del|b>*<b|r|0> + (<0|r|b>*<b|del|0>)*] (Au)
       state          X           Y           Z        Dip. S.   Osc.(frdel)
         1         0.0000     -0.0000     -0.0006      0.0006      0.0004
         2        -0.0166      0.0166     -0.0000     -0.0000     -0.0000
         3        -0.0035      0.0967      0.0000     -0.0932     -0.0622

 Excitation energies and oscillator strengths:
 
 Excited State   1:      Singlet-A"     2.7078 eV  457.88 nm  f=0.0005  <S**2>=0.000
       5 ->  9         0.13416
       8 ->  9         0.69176
 This state for optimization and/or second-order correction.
 Total Energy, E(CIS/TDA) =  -112.213427791    
 Copying the excited state density for this state as the 1-particle RhoCI density.
 
 Excited State   2:      Singlet-A'     7.0586 eV  175.65 nm  f=0.0115  <S**2>=0.000
       6 ->  9         0.65779
       7 ->  9        -0.23543
 
 Excited State   3:      Singlet-A'    10.1419 eV  122.25 nm  f=0.3121  <S**2>=0.000
       6 ->  9         0.24375
       6 -> 12        -0.23260
       7 ->  9         0.60743
 SavETr:  write IOETrn=   770 NScale= 10 NData=  16 NLR=1 NState=    3 LETran=      64.
 The selected state is a singlet.
 CISGrd: IGrad=2 NXY=1 DFT=F
 CISAX will form     1 AO SS matrices at one time.
 NMat=     1 NSing=     1 JSym2X= 2.
 Leave Link  914 at Fri Feb 23 11:03:18 2024, MaxMem=   104857600 cpu:               0.0 elap:               0.1
 (Enter /apps/gaussian/g16-c01-avx2/g16/l1002.exe)
 Minotr:  Closed shell wavefunction.
          Computing CIS/TDA/TD derivatives.
          Using Z-Vector for PSCF gradient.
          Skipping F1 and S1 gradient terms here.
          IDoAtm=1111
          Frozen-core window.
          Direct CPHF calculation.
          Differentiating once with respect to electric field.
                with respect to dipole field.
          Differentiating once with respect to nuclear coordinates.
          Requested convergence is 1.0D-10 RMS, and 1.0D-09 maximum.
          NewPWx=F KeepS1=T KeepF1=T KeepIn=T MapXYZ=F SortEE=F KeepMc=T.
 Keep R1 ints in memory in symmetry-blocked form, NReq=808106.
 FoFCou: FMM=F IPFlag=           0 FMFlag=           0 FMFlg1=           0
         NFxFlg=           0 DoJE=F BraDBF=F KetDBF=F FulRan=T
         wScrn=  0.000000 ICntrl=       600 IOpCl=  0 I1Cent=           0 NGrid=           0
         NMat0=    1 NMatS0=     78 NMatT0=    0 NMatD0=    1 NMtDS0=    0 NMtDT0=    0
 Petite list used in FoFCou.
          MDV=     104857600 using IRadAn=       5.
          Solving linear equations separately, MaxMat=       0.
          There are     1 degrees of freedom in the 1st order CPHF.  IDoFFX=0 NUNeed=     1.
 LinEq1:  Iter=  0 NonCon=     1 RMS=1.15D-01 Max=5.30D-01 NDo=     1
 AX will form     1 AO Fock derivatives at one time.
 LinEq1:  Iter=  1 NonCon=     1 RMS=1.60D-02 Max=4.93D-02 NDo=     1
 LinEq1:  Iter=  2 NonCon=     1 RMS=2.24D-03 Max=7.35D-03 NDo=     1
 LinEq1:  Iter=  3 NonCon=     1 RMS=2.23D-04 Max=4.98D-04 NDo=     1
 LinEq1:  Iter=  4 NonCon=     1 RMS=2.48D-05 Max=8.90D-05 NDo=     1
 LinEq1:  Iter=  5 NonCon=     1 RMS=5.19D-06 Max=1.92D-05 NDo=     1
 LinEq1:  Iter=  6 NonCon=     1 RMS=6.80D-07 Max=2.50D-06 NDo=     1
 LinEq1:  Iter=  7 NonCon=     1 RMS=6.00D-08 Max=2.25D-07 NDo=     1
 LinEq1:  Iter=  8 NonCon=     1 RMS=3.29D-09 Max=9.33D-09 NDo=     1
 LinEq1:  Iter=  9 NonCon=     1 RMS=3.62D-10 Max=1.05D-09 NDo=     1
 LinEq1:  Iter= 10 NonCon=     0 RMS=1.87D-11 Max=4.34D-11 NDo=     1
 Linear equations converged to 1.000D-10 1.000D-09 after    10 iterations.
 End of Minotr F.D. properties file   721 does not exist.
 End of Minotr F.D. properties file   722 does not exist.
 End of Minotr F.D. properties file   788 does not exist.
 Leave Link 1002 at Fri Feb 23 11:03:18 2024, MaxMem=   104857600 cpu:               0.1 elap:               0.1
 (Enter /apps/gaussian/g16-c01-avx2/g16/l701.exe)
 ... and contract with generalized density number  6.
 Compute integral first derivatives.
 Leave Link  701 at Fri Feb 23 11:03:18 2024, MaxMem=   104857600 cpu:               0.1 elap:               0.0
 (Enter /apps/gaussian/g16-c01-avx2/g16/l702.exe)
 L702 exits ... SP integral derivatives will be done elsewhere.
 Leave Link  702 at Fri Feb 23 11:03:18 2024, MaxMem=   104857600 cpu:               0.0 elap:               0.0
 (Enter /apps/gaussian/g16-c01-avx2/g16/l703.exe)
 Integral derivatives from FoFJK, PRISM(SPDF).
 Compute integral first derivatives, UseDBF=F ICtDFT=           0.
 Calling FoFJK, ICntrl=  10005127 FMM=F ISym2X=1 I1Cent= 0 IOpClX= 0 NMat=1 NMatS=1 NMatT=0.
 FoFJK:  IHMeth= 1 ICntrl=10005127 DoSepK=F KAlg= 0 I1Cent=           0 FoldK=F
 IRaf=         0 NMat=       1 IRICut=       1 DoRegI=T DoRafI=F ISym2E= 1 IDoP0=0 IntGTp=1.
 FoFCou: FMM=F IPFlag=           0 FMFlag=      100000 FMFlg1=         800
         NFxFlg=           0 DoJE=F BraDBF=F KetDBF=F FulRan=T
         wScrn=  0.000000 ICntrl=  10005127 IOpCl=  0 I1Cent=           0 NGrid=           0
         NMat0=    1 NMatS0=      1 NMatT0=    0 NMatD0=    1 NMtDS0=    0 NMtDT0=    0
 Petite list used in FoFCou.
 Leave Link  703 at Fri Feb 23 11:03:18 2024, MaxMem=   104857600 cpu:               0.0 elap:               0.0
 (Enter /apps/gaussian/g16-c01-avx2/g16/l716.exe)
 Dipole        =-2.98418368D-01 8.05351952D-02-3.80256752D-30
 ***** Axes restored to original set *****
 -------------------------------------------------------------------
 Center     Atomic                   Forces (Hartrees/Bohr)
 Number     Number              X              Y              Z
 -------------------------------------------------------------------
      1        6           0.001732923    0.000000000    0.008139896
      2        1           0.000669340   -0.016519909   -0.006709142
      3        1           0.000669340    0.016519909   -0.006709142
      4        8          -0.003071602    0.000000000    0.005278388
 -------------------------------------------------------------------
 Cartesian Forces:  Max     0.016519909 RMS     0.007870266
 Leave Link  716 at Fri Feb 23 11:03:18 2024, MaxMem=   104857600 cpu:               0.0 elap:               0.0
 (Enter /apps/gaussian/g16-c01-avx2/g16/l103.exe)

 GradGradGradGradGradGradGradGradGradGradGradGradGradGradGradGradGradGrad
 Berny optimization.
 Using GEDIIS/GDIIS optimizer.
 FormGI is forming the generalized inverse of G from B-inverse, IUseBI=4.
 Internal  Forces:  Max     0.016876227 RMS     0.009879869
 Search for a local minimum.
 Step number   2 out of a maximum of   20
 All quantities printed in internal units (Hartrees-Bohrs-Radians)
 RMS Force = .98799D-02 SwitMx=.10000D-02 MixMth= 1
 Mixed Optimization -- RFO/linear search
 Update second derivatives using D2CorX and points    1    2
 DE= -6.78D-03 DEPred=-8.91D-03 R= 7.61D-01
 TightC=F SS=  1.41D+00  RLast= 2.49D-01 DXNew= 5.0454D-01 7.4813D-01
 Trust test= 7.61D-01 RLast= 2.49D-01 DXMaxT set to 5.05D-01
 The second derivative matrix:
                          R1        R2        R3        A1        A2
           R1           0.34572
           R2           0.06546   0.34572
           R3           0.01519   0.01519   0.64983
           A1           0.01367   0.01367  -0.00180   0.15474
           A2           0.01113   0.01113   0.00113  -0.00005   0.16120
           A3           0.01113   0.01113   0.00113  -0.00005   0.00120
           D1           0.01632   0.01632   0.00040  -0.00211   0.00116
                          A3        D1
           A3           0.16120
           D1           0.00116   0.02935
 ITU=  1  0
 Use linear search instead of GDIIS.
     Eigenvalues ---    0.05016   0.15888   0.16000   0.28026   0.41239
     Eigenvalues ---    0.65178
 RFO step:  Lambda=-1.75747803D-03 EMin= 5.01562706D-02
 Quartic linear search produced a step of -0.18730.
 Iteration  1 RMS(Cart)=  0.04479372 RMS(Int)=  0.00282866
 Iteration  2 RMS(Cart)=  0.00158785 RMS(Int)=  0.00225156
 Iteration  3 RMS(Cart)=  0.00000150 RMS(Int)=  0.00225156
 Iteration  4 RMS(Cart)=  0.00000001 RMS(Int)=  0.00225156
 ITry= 1 IFail=0 DXMaxC= 7.07D-02 DCOld= 1.00D+10 DXMaxT= 5.05D-01 DXLimC= 3.00D+00 Rises=F
 ClnCor:  largest displacement from symmetrization is 2.33D-14 for atom     3.
 Variable       Old X    -DE/DX   Delta X   Delta X   Delta X     New X
                                 (Linear)    (Quad)   (Total)
    R1        2.02477   0.01688   0.03054  -0.00358   0.02696   2.05173
    R2        2.02477   0.01688   0.03054  -0.00358   0.02696   2.05173
    R3        2.47459   0.00511  -0.00042   0.00701   0.00660   2.48119
    A1        1.96637   0.00338  -0.01184   0.07162   0.05602   2.02240
    A2        1.99552   0.00165   0.00237   0.02562   0.02509   2.02061
    A3        1.99552   0.00165   0.00237   0.02562   0.02509   2.02061
    D1        2.30323   0.00841  -0.01283   0.15907   0.14839   2.45162
         Item               Value     Threshold  Converged?
 Maximum Force            0.016876     0.000450     NO 
 RMS     Force            0.009880     0.000300     NO 
 Maximum Displacement     0.070692     0.001800     NO 
 RMS     Displacement     0.043998     0.001200     NO 
 Predicted change in Energy=-1.284107D-03
 Lowest energy point so far.  Saving SCF results.
 GradGradGradGradGradGradGradGradGradGradGradGradGradGradGradGradGradGrad

 Leave Link  103 at Fri Feb 23 11:03:18 2024, MaxMem=   104857600 cpu:               0.0 elap:               0.0
 (Enter /apps/gaussian/g16-c01-avx2/g16/l202.exe)
                          Input orientation:                          
 ---------------------------------------------------------------------
 Center     Atomic      Atomic             Coordinates (Angstroms)
 Number     Number       Type             X           Y           Z
 ---------------------------------------------------------------------
      1          6           0       -0.009902   -0.000000   -0.612132
      2          1           0        0.313569   -0.920122   -1.089157
      3          1           0        0.313569    0.920122   -1.089157
      4          8           0        0.009965    0.000000    0.700705
 ---------------------------------------------------------------------
                    Distance matrix (angstroms):
                    1          2          3          4
     1  C    0.000000
     2  H    1.085731   0.000000
     3  H    1.085731   1.840245   0.000000
     4  O    1.312987   2.035290   2.035290   0.000000
 Stoichiometry    CH2O
 Framework group  CS[SG(CO),X(H2)]
 Deg. of freedom     4
 Full point group                 CS      NOp   2
 RotChk:  IX=0 Diff= 5.45D-02
 Largest Abelian subgroup         CS      NOp   2
 Largest concise Abelian subgroup CS      NOp   2
                         Standard orientation:                         
 ---------------------------------------------------------------------
 Center     Atomic      Atomic             Coordinates (Angstroms)
 Number     Number       Type             X           Y           Z
 ---------------------------------------------------------------------
      1          6           0        0.041331    0.597484   -0.000000
      2          1           0       -0.289320    1.069560    0.920122
      3          1           0       -0.289320    1.069560   -0.920122
      4          8           0        0.041331   -0.715503    0.000000
 ---------------------------------------------------------------------
 Rotational constants (GHZ):         269.9464169          34.0685856          30.8628038
 Leave Link  202 at Fri Feb 23 11:03:18 2024, MaxMem=   104857600 cpu:               0.0 elap:               0.0
 (Enter /apps/gaussian/g16-c01-avx2/g16/l301.exe)
 Standard basis: STO-3G (5D, 7F)
 Ernie: Thresh=  0.10000D-02 Tol=  0.10000D-05 Strict=F.
 There are     9 symmetry adapted cartesian basis functions of A'  symmetry.
 There are     3 symmetry adapted cartesian basis functions of A"  symmetry.
 There are     9 symmetry adapted basis functions of A'  symmetry.
 There are     3 symmetry adapted basis functions of A"  symmetry.
    12 basis functions,    36 primitive gaussians,    12 cartesian basis functions
     8 alpha electrons        8 beta electrons
       nuclear repulsion energy        29.6418708962 Hartrees.
 IExCor=    0 DFT=F Ex=HF Corr=None ExCW=0 ScaHFX=  1.000000
 ScaDFX=  1.000000  1.000000  1.000000  1.000000 ScalE2=  1.000000  1.000000
 IRadAn=      5 IRanWt=     -1 IRanGd=            0 ICorTp=0 IEmpDi=  4
 NAtoms=    4 NActive=    4 NUniq=    3 SFac= 1.78D+00 NAtFMM=   60 NAOKFM=F Big=F
 Integral buffers will be    131072 words long.
 Raffenetti 1 integral format.
 Two-electron integral symmetry is turned on.
 Leave Link  301 at Fri Feb 23 11:03:19 2024, MaxMem=   104857600 cpu:               0.0 elap:               0.0
 (Enter /apps/gaussian/g16-c01-avx2/g16/l302.exe)
 NPDir=0 NMtPBC=     1 NCelOv=     1 NCel=       1 NClECP=     1 NCelD=      1
         NCelK=      1 NCelE2=     1 NClLst=     1 CellRange=     0.0.
 One-electron integrals computed using PRISM.
 One-electron integral symmetry used in STVInt
 NBasis=    12 RedAO= T EigKep=  2.54D-01  NBF=     9     3
 NBsUse=    12 1.00D-06 EigRej= -1.00D+00 NBFU=     9     3
 Leave Link  302 at Fri Feb 23 11:03:19 2024, MaxMem=   104857600 cpu:               0.0 elap:               0.0
 (Enter /apps/gaussian/g16-c01-avx2/g16/l303.exe)
 DipDrv:  MaxL=1.
 Leave Link  303 at Fri Feb 23 11:03:19 2024, MaxMem=   104857600 cpu:               0.0 elap:               0.0
 (Enter /apps/gaussian/g16-c01-avx2/g16/l308.exe)
 Leave Link  308 at Fri Feb 23 11:03:19 2024, MaxMem=   104857600 cpu:               0.0 elap:               0.0
 (Enter /apps/gaussian/g16-c01-avx2/g16/l401.exe)
 Initial guess from the checkpoint file:  "manual_displacement_opt.chk"
 B after Tr=    -0.000000    0.000000    0.000000
         Rot=    0.999957    0.000000    0.000000    0.009313 Ang=   1.07 deg.
 Guess basis will be translated and rotated to current coordinates.
 JPrj=2 DoOrth=T DoCkMO=T.
 Initial guess orbital symmetries:
       Occupied  (A') (A') (A') (A') (A") (A') (A') (A")
       Virtual   (A') (A') (A") (A')
 The electronic state of the initial guess is 1-A'.
 Generating alternative initial guess.
 ExpMin= 1.69D-01 ExpMax= 1.31D+02 ExpMxC= 1.31D+02 IAcc=3 IRadAn=         5 AccDes= 0.00D+00
 Harris functional with IExCor=  205 and IRadAn=       5 diagonalized for initial guess.
 HarFok:  IExCor=  205 AccDes= 0.00D+00 IRadAn=         5 IDoV= 1 UseB2=F ITyADJ=14
 ICtDFT=  3500011 ScaDFX=  1.000000  1.000000  1.000000  1.000000
 FoFCou: FMM=F IPFlag=           0 FMFlag=      100000 FMFlg1=           0
         NFxFlg=           0 DoJE=T BraDBF=F KetDBF=T FulRan=T
         wScrn=  0.000000 ICntrl=       500 IOpCl=  0 I1Cent=   200000004 NGrid=           0
         NMat0=    1 NMatS0=      1 NMatT0=    0 NMatD0=    1 NMtDS0=    0 NMtDT0=    0
 Petite list used in FoFCou.
 Harris En= -112.383340640152    
 Leave Link  401 at Fri Feb 23 11:03:19 2024, MaxMem=   104857600 cpu:               0.1 elap:               0.1
 (Enter /apps/gaussian/g16-c01-avx2/g16/l502.exe)
 Keep R1 ints in memory in symmetry-blocked form, NReq=807511.
 FoFCou: FMM=F IPFlag=           0 FMFlag=           0 FMFlg1=           0
         NFxFlg=           0 DoJE=F BraDBF=F KetDBF=F FulRan=T
         wScrn=  0.000000 ICntrl=       600 IOpCl=  0 I1Cent=           0 NGrid=           0
         NMat0=    1 NMatS0=     78 NMatT0=    0 NMatD0=    1 NMtDS0=    0 NMtDT0=    0
 Petite list used in FoFCou.
 Closed shell SCF:
 Using DIIS extrapolation, IDIIS=  1040.
 NGot=   104857600 LenX=   104854054 LenY=   104853172
 Requested convergence on RMS density matrix=1.00D-08 within 128 cycles.
 Requested convergence on MAX density matrix=1.00D-06.
 Requested convergence on             energy=1.00D-06.
 No special actions if energy rises.

 Cycle   1  Pass 1  IDiag  1:
 E= -112.320927189649    
 DIIS: error= 5.77D-03 at cycle   1 NSaved=   1.
 NSaved= 1 IEnMin= 1 EnMin= -112.320927189649     IErMin= 1 ErrMin= 5.77D-03
 ErrMax= 5.77D-03  0.00D+00 EMaxC= 1.00D-01 BMatC= 2.58D-04 BMatP= 2.58D-04
 IDIUse=3 WtCom= 9.42D-01 WtEn= 5.77D-02
 Coeff-Com:  0.100D+01
 Coeff-En:   0.100D+01
 Coeff:      0.100D+01
 Gap=     0.594 Goal=   None    Shift=    0.000
 GapD=    0.594 DampG=2.000 DampE=1.000 DampFc=2.0000 IDamp=-1.
 RMSDP=2.62D-03 MaxDP=1.38D-02              OVMax= 0.00D+00

 Cycle   2  Pass 1  IDiag  1:
 E= -112.321503265002     Delta-E=       -0.000576075353 Rises=F Damp=F
 DIIS: error= 1.74D-03 at cycle   2 NSaved=   2.
 NSaved= 2 IEnMin= 2 EnMin= -112.321503265002     IErMin= 2 ErrMin= 1.74D-03
 ErrMax= 1.74D-03  0.00D+00 EMaxC= 1.00D-01 BMatC= 3.74D-05 BMatP= 2.58D-04
 IDIUse=3 WtCom= 9.83D-01 WtEn= 1.74D-02
 Coeff-Com: -0.302D+00 0.130D+01
 Coeff-En:   0.000D+00 0.100D+01
 Coeff:     -0.296D+00 0.130D+01
 Gap=     0.590 Goal=   None    Shift=    0.000
 RMSDP=1.28D-03 MaxDP=6.29D-03 DE=-5.76D-04 OVMax= 0.00D+00

 Cycle   3  Pass 1  IDiag  1:
 E= -112.321592805349     Delta-E=       -0.000089540347 Rises=F Damp=F
 DIIS: error= 8.50D-04 at cycle   3 NSaved=   3.
 NSaved= 3 IEnMin= 3 EnMin= -112.321592805349     IErMin= 3 ErrMin= 8.50D-04
 ErrMax= 8.50D-04  0.00D+00 EMaxC= 1.00D-01 BMatC= 5.56D-06 BMatP= 3.74D-05
 IDIUse=3 WtCom= 9.91D-01 WtEn= 8.50D-03
 Coeff-Com: -0.145D+00 0.342D+00 0.803D+00
 Coeff-En:   0.000D+00 0.000D+00 0.100D+01
 Coeff:     -0.143D+00 0.339D+00 0.804D+00
 Gap=     0.592 Goal=   None    Shift=    0.000
 RMSDP=3.74D-04 MaxDP=2.60D-03 DE=-8.95D-05 OVMax= 0.00D+00

 Cycle   4  Pass 1  IDiag  1:
 E= -112.321605387326     Delta-E=       -0.000012581977 Rises=F Damp=F
 DIIS: error= 3.19D-04 at cycle   4 NSaved=   4.
 NSaved= 4 IEnMin= 4 EnMin= -112.321605387326     IErMin= 4 ErrMin= 3.19D-04
 ErrMax= 3.19D-04  0.00D+00 EMaxC= 1.00D-01 BMatC= 1.45D-06 BMatP= 5.56D-06
 IDIUse=3 WtCom= 9.97D-01 WtEn= 3.19D-03
 Coeff-Com:  0.729D-01-0.289D+00 0.746D-01 0.114D+01
 Coeff-En:   0.000D+00 0.000D+00 0.000D+00 0.100D+01
 Coeff:      0.727D-01-0.288D+00 0.743D-01 0.114D+01
 Gap=     0.591 Goal=   None    Shift=    0.000
 RMSDP=1.97D-04 MaxDP=1.06D-03 DE=-1.26D-05 OVMax= 0.00D+00

 Cycle   5  Pass 1  IDiag  1:
 E= -112.321608598760     Delta-E=       -0.000003211434 Rises=F Damp=F
 DIIS: error= 1.10D-04 at cycle   5 NSaved=   5.
 NSaved= 5 IEnMin= 5 EnMin= -112.321608598760     IErMin= 5 ErrMin= 1.10D-04
 ErrMax= 1.10D-04  0.00D+00 EMaxC= 1.00D-01 BMatC= 1.81D-07 BMatP= 1.45D-06
 IDIUse=3 WtCom= 9.99D-01 WtEn= 1.10D-03
 Coeff-Com: -0.186D-01 0.103D+00-0.482D-01-0.954D+00 0.192D+01
 Coeff-En:   0.000D+00 0.000D+00 0.000D+00 0.000D+00 0.100D+01
 Coeff:     -0.186D-01 0.103D+00-0.482D-01-0.953D+00 0.192D+01
 Gap=     0.591 Goal=   None    Shift=    0.000
 RMSDP=1.34D-04 MaxDP=6.94D-04 DE=-3.21D-06 OVMax= 0.00D+00

 Cycle   6  Pass 1  IDiag  1:
 E= -112.321609249338     Delta-E=       -0.000000650578 Rises=F Damp=F
 DIIS: error= 9.42D-06 at cycle   6 NSaved=   6.
 NSaved= 6 IEnMin= 6 EnMin= -112.321609249338     IErMin= 6 ErrMin= 9.42D-06
 ErrMax= 9.42D-06  0.00D+00 EMaxC= 1.00D-01 BMatC= 9.03D-10 BMatP= 1.81D-07
 IDIUse=1 WtCom= 1.00D+00 WtEn= 0.00D+00
 Coeff-Com:  0.682D-02-0.400D-01 0.235D-01 0.381D+00-0.814D+00 0.144D+01
 Coeff:      0.682D-02-0.400D-01 0.235D-01 0.381D+00-0.814D+00 0.144D+01
 Gap=     0.591 Goal=   None    Shift=    0.000
 RMSDP=7.80D-06 MaxDP=2.96D-05 DE=-6.51D-07 OVMax= 0.00D+00

 Cycle   7  Pass 1  IDiag  1:
 E= -112.321609252158     Delta-E=       -0.000000002820 Rises=F Damp=F
 DIIS: error= 7.24D-07 at cycle   7 NSaved=   7.
 NSaved= 7 IEnMin= 7 EnMin= -112.321609252158     IErMin= 7 ErrMin= 7.24D-07
 ErrMax= 7.24D-07  0.00D+00 EMaxC= 1.00D-01 BMatC= 6.23D-12 BMatP= 9.03D-10
 IDIUse=1 WtCom= 1.00D+00 WtEn= 0.00D+00
 Coeff-Com: -0.965D-03 0.574D-02-0.332D-02-0.564D-01 0.121D+00-0.258D+00
 Coeff-Com:  0.119D+01
[...]
                                                                                                                X                    
                                                                                                                X                    
                                                                                                                X                    
                                                                                                                X                    
                                                                                                                X                    
                                                                                                                X                    
                                                                                                                X                    
                                                                                                                X                    
                                                                                                                X                    
                                                                                                                X                    
                                                                                                                X                    
                                                                                                                X                    
 
 ***** Axes restored to original set *****
 -------------------------------------------------------------------
 Center     Atomic                   Forces (Hartrees/Bohr)
 Number     Number              X              Y              Z
 -------------------------------------------------------------------
      1        6          -0.000006215    0.000000000    0.000453969
      2        1           0.000009184   -0.000083764   -0.000051765
      3        1           0.000009184    0.000083764   -0.000051765
      4        8          -0.000012152    0.000000000   -0.000350440
 -------------------------------------------------------------------
 Cartesian Forces:  Max     0.000453969 RMS     0.000170451
 -------------------------------------------------------------------
 Center     Atomic                Nonadiabatic Coup. (Bohr^-1)
 Number     Number              X              Y              Z
 -------------------------------------------------------------------
      1        6          -0.000000000   -0.118572038    0.000000000
      2        1           0.299258706    0.047899881    0.046425937
      3        1          -0.299258706    0.047899881   -0.046425937
      4        8          -0.000000000    0.016977798    0.000000000
 -------------------------------------------------------------------
 Cartesian Nonad. Coup.:  Max     0.299258706 RMS     0.129858465
 Force constants in Cartesian coordinates: 
                1             2             3             4             5 
      1  0.848315D-01
      2  0.000000D+00  0.751592D+00
      3 -0.124667D+00  0.000000D+00  0.101085D+01
      4 -0.384540D-01  0.107863D+00  0.632117D-01  0.354676D-01
      5  0.797473D-01 -0.350391D+00 -0.143200D+00 -0.942578D-01  0.362371D+00
      6  0.474243D-01 -0.145440D+00 -0.128451D+00 -0.577016D-01  0.159030D+00
      7 -0.384540D-01 -0.107863D+00  0.632117D-01  0.233674D-02  0.131579D-01
      8 -0.797473D-01 -0.350391D+00  0.143200D+00 -0.131579D-01 -0.145719D-01
      9  0.474243D-01  0.145440D+00 -0.128451D+00 -0.281229D-02 -0.171149D-01
     10 -0.792352D-02  0.000000D+00 -0.175597D-02  0.649687D-03  0.135262D-02
     11  0.000000D+00 -0.508106D-01  0.000000D+00 -0.447686D-03  0.259181D-02
     12  0.298188D-01  0.000000D+00 -0.753952D+00 -0.269781D-02  0.128552D-02
                6             7             8             9            10 
      6  0.146823D+00
      7 -0.281229D-02  0.354676D-01
      8  0.171149D-01  0.942578D-01  0.362371D+00
      9  0.125642D-01 -0.577016D-01 -0.159030D+00  0.146823D+00
     10  0.130896D-01  0.649687D-03 -0.135262D-02  0.130896D-01  0.662415D-02
     11 -0.307046D-01  0.447686D-03  0.259181D-02  0.307046D-01  0.000000D+00
     12 -0.309364D-01 -0.269781D-02 -0.128552D-02 -0.309364D-01 -0.244232D-01
               11            12 
     11  0.456270D-01
     12  0.000000D+00  0.815825D+00
 FormGI is forming the generalized inverse of G from B-inverse, IUseBI=4.
 Force constants in internal coordinates: 
                1             2             3             4             5 
      1  0.474126D+00
      2 -0.497051D-02  0.474126D+00
      3  0.119561D-01  0.119561D-01  0.816260D+00
      4  0.312353D-02  0.312353D-02 -0.362451D-01  0.835079D-01
      5  0.173934D-01 -0.117037D-01  0.289043D-01 -0.517653D-01  0.109744D+00
      6 -0.117037D-01  0.173934D-01  0.289043D-01 -0.517653D-01 -0.421941D-01
      7  0.155397D-01  0.155397D-01  0.229207D-01 -0.413025D-02  0.809527D-02
                6             7 
      6  0.109744D+00
      7  0.809527D-02  0.183731D-01
 Leave Link  716 at Fri Feb 23 11:03:25 2024, MaxMem=   104857600 cpu:               0.0 elap:               0.0
 (Enter /apps/gaussian/g16-c01-avx2/g16/l103.exe)

 GradGradGradGradGradGradGradGradGradGradGradGradGradGradGradGradGradGrad
 Berny optimization.
 Red2BG is reusing G-inverse.
 Internal  Forces:  Max     0.000350287 RMS     0.000142970
 Search for a local minimum.
 Step number   1 out of a maximum of    2
 All quantities printed in internal units (Hartrees-Bohrs-Radians)
 Second derivative matrix not updated -- analytic derivatives used.
 The second derivative matrix:
                          R1        R2        R3        A1        A2
           R1           0.47413
           R2          -0.00497   0.47413
           R3           0.01196   0.01196   0.81626
           A1           0.00312   0.00312  -0.03625   0.08351
           A2           0.01739  -0.01170   0.02890  -0.05177   0.10974
           A3          -0.01170   0.01739   0.02890  -0.05177  -0.04219
           D1           0.01554   0.01554   0.02292  -0.00413   0.00810
                          A3        D1
           A3           0.10974
           D1           0.00810   0.01837
 ITU=  0
     Eigenvalues ---    0.01777   0.14539   0.14937   0.46941   0.48166
     Eigenvalues ---    0.82228
 Angle between quadratic step and forces=  69.11 degrees.
 Linear search not attempted -- first point.
 Iteration  1 RMS(Cart)=  0.00046669 RMS(Int)=  0.00000052
 Iteration  2 RMS(Cart)=  0.00000028 RMS(Int)=  0.00000044
 ITry= 1 IFail=0 DXMaxC= 9.30D-04 DCOld= 1.00D+10 DXMaxT= 3.00D-01 DXLimC= 3.00D+00 Rises=F
 Variable       Old X    -DE/DX   Delta X   Delta X   Delta X     New X
                                 (Linear)    (Quad)   (Total)
    R1        2.04915   0.00010   0.00000   0.00015   0.00015   2.04931
    R2        2.04915   0.00010   0.00000   0.00015   0.00015   2.04931
    R3        2.47357  -0.00035   0.00000  -0.00050  -0.00050   2.47307
    A1        2.05757  -0.00001   0.00000   0.00028   0.00028   2.05785
    A2        2.03269   0.00001   0.00000   0.00040   0.00040   2.03309
    A3        2.03269   0.00001   0.00000   0.00040   0.00040   2.03309
    D1        2.55262   0.00003   0.00000   0.00187   0.00187   2.55449
         Item               Value     Threshold  Converged?
 Maximum Force            0.000350     0.000450     YES
 RMS     Force            0.000143     0.000300     YES
 Maximum Displacement     0.000930     0.001800     YES
 RMS     Displacement     0.000467     0.001200     YES
 Predicted change in Energy=-1.380088D-07
 Optimization completed.
    -- Stationary point found.
                           ----------------------------
                           !   Optimized Parameters   !
                           ! (Angstroms and Degrees)  !
 --------------------------                            --------------------------
 ! Name  Definition              Value          Derivative Info.                !
 --------------------------------------------------------------------------------
 ! R1    R(1,2)                  1.0844         -DE/DX =    0.0001              !
 ! R2    R(1,3)                  1.0844         -DE/DX =    0.0001              !
 ! R3    R(1,4)                  1.309          -DE/DX =   -0.0004              !
 ! A1    A(2,1,3)              117.8903         -DE/DX =    0.0                 !
 ! A2    A(2,1,4)              116.4644         -DE/DX =    0.0                 !
 ! A3    A(3,1,4)              116.4644         -DE/DX =    0.0                 !
 ! D1    D(2,1,4,3)            146.2544         -DE/DX =    0.0                 !
 --------------------------------------------------------------------------------
 GradGradGradGradGradGradGradGradGradGradGradGradGradGradGradGradGradGrad

 Leave Link  103 at Fri Feb 23 11:03:25 2024, MaxMem=   104857600 cpu:               0.0 elap:               0.0
 (Enter /apps/gaussian/g16-c01-avx2/g16/l9999.exe)
 -------------------------------------------------------------------
 Center     Atomic                Nonadiabatic Coup. (Bohr^-1)
 Number     Number              X              Y              Z
 -------------------------------------------------------------------
      1        6          -0.000000000   -0.118572038    0.000000000
      2        1           0.299258706    0.047899881    0.046425937
      3        1          -0.299258706    0.047899881   -0.046425937
      4        8          -0.000000000    0.016977798    0.000000000
 -------------------------------------------------------------------
 Cartesian Nonad. Coup.:  Max     0.299258706 RMS     0.129858465
 Electronic transition elements 
                 1             2             3 
      1  -0.112215D+03 -0.112053D+03 -0.111951D+03
      2   0.000000D+00 -0.162054D+00 -0.150530D+00
      3  -0.684567D-01  0.000000D+00  0.000000D+00
      4   0.000000D+00  0.166159D+00 -0.108126D+01
      5   0.000000D+00  0.132607D+00  0.197082D-01
      6   0.579448D-02  0.000000D+00  0.000000D+00
      7   0.000000D+00  0.599664D-01 -0.964132D-01
      8   0.124576D+00  0.000000D+00  0.000000D+00
      9   0.000000D+00  0.161968D+01  0.308975D+00
     10  -0.110249D+01  0.000000D+00  0.000000D+00
     11   0.000000D+00 -0.132682D-01 -0.885895D-01
     12   0.000000D+00 -0.186368D-03 -0.117533D+00
     13   0.000000D+00  0.130848D-01 -0.206800D+00
     14  -0.209711D-01  0.000000D+00  0.000000D+00
     15   0.000000D+00  0.417953D-01  0.491884D-01
     16  -0.482953D-02  0.000000D+00  0.000000D+00
 Electronic Transition Derivatives 
                 1             2             3             4             5 
      1   0.000000D+00  0.000000D+00  0.000000D+00  0.000000D+00  0.000000D+00
      2   0.000000D+00  0.877634D+00  0.000000D+00  0.000000D+00  0.690707D-01
      3   0.681857D+00  0.000000D+00  0.864614D-01  0.177301D+00  0.000000D+00
      4   0.000000D+00  0.332045D+00  0.000000D+00  0.000000D+00 -0.129848D-01
      5   0.000000D+00 -0.403120D+00  0.000000D+00  0.000000D+00  0.112940D-01
      6   0.246024D+00  0.000000D+00  0.105772D+00 -0.124522D-01  0.000000D+00
      7   0.000000D+00 -0.998203D-03  0.000000D+00  0.000000D+00  0.115939D-01
      8  -0.131984D+01  0.000000D+00  0.365988D+00  0.183639D+00  0.000000D+00
      9   0.000000D+00  0.200290D+00  0.000000D+00  0.000000D+00  0.748418D+00
     10   0.334025D+00  0.000000D+00  0.327811D+00  0.530538D-01  0.000000D+00
     11   0.000000D+00  0.170014D-01  0.000000D+00  0.000000D+00 -0.442551D-02
     12   0.000000D+00  0.430759D-01  0.000000D+00  0.000000D+00  0.226618D-01
     13   0.000000D+00 -0.825231D-02  0.000000D+00  0.000000D+00  0.258596D-02
     14  -0.107510D-01  0.000000D+00  0.154178D-01 -0.290209D-03  0.000000D+00
     15   0.000000D+00 -0.240746D+00  0.000000D+00  0.000000D+00 -0.200908D-01
     16   0.186108D+00  0.000000D+00 -0.732677D-01  0.283781D-02  0.000000D+00
                 6             7             8             9            10 
      1   0.000000D+00  0.000000D+00  0.000000D+00  0.000000D+00  0.000000D+00
      2   0.000000D+00  0.263174D-01 -0.226615D-01  0.501716D-02 -0.263174D-01
      3  -0.153856D+00 -0.671164D-01  0.548824D-01  0.170473D-01 -0.671164D-01
      4   0.000000D+00 -0.656383D-02  0.205489D-01  0.499248D-01  0.656383D-02
      5   0.000000D+00  0.109026D-03 -0.569276D-02 -0.300691D-02 -0.109026D-03
      6   0.136624D-01  0.511401D-02 -0.879147D-03 -0.364218D-02  0.511401D-02
      7   0.000000D+00  0.106277D-03 -0.601680D-03  0.535867D-02 -0.106277D-03
      8  -0.102036D+00  0.983562D-01  0.656757D-03 -0.127335D-01  0.983562D-01
      9   0.000000D+00  0.454726D-01 -0.484911D-01  0.119853D+00 -0.454726D-01
     10   0.205099D-01  0.102083D-01 -0.440207D-01 -0.600808D-01  0.102083D-01
     11   0.000000D+00  0.115385D-01  0.136203D-02 -0.494671D-03 -0.115385D-01
     12   0.000000D+00 -0.102427D-01 -0.496208D-02 -0.798827D-03  0.102427D-01
     13   0.000000D+00 -0.325437D-03  0.942508D-03  0.638808D-02  0.325437D-03
     14  -0.113048D-01  0.162333D-02  0.193698D-02  0.237027D-02  0.162333D-02
     15   0.000000D+00 -0.929854D-03  0.758436D-02  0.642567D-02  0.929854D-03
     16  -0.261044D-01 -0.468426D-02  0.523098D-02  0.426493D-02 -0.468426D-02
                11            12            13            14            15 
      1   0.000000D+00  0.000000D+00  0.000000D+00  0.000000D+00  0.000000D+00
      2  -0.226615D-01 -0.501716D-02  0.000000D+00 -0.237478D-01  0.000000D+00
      3  -0.548824D-01  0.170473D-01 -0.430683D-01  0.000000D+00  0.119762D+00
      4   0.205489D-01 -0.499248D-01  0.000000D+00 -0.281130D-01  0.000000D+00
      5  -0.569276D-02  0.300691D-02  0.000000D+00  0.915389D-04  0.000000D+00
      6   0.879147D-03 -0.364218D-02  0.222418D-02  0.000000D+00 -0.637803D-02
      7  -0.601680D-03 -0.535867D-02  0.000000D+00 -0.103905D-01  0.000000D+00
      8  -0.656757D-03 -0.127335D-01 -0.380352D+00  0.000000D+00  0.121708D+00
      9  -0.484911D-01 -0.119853D+00  0.000000D+00 -0.651435D+00  0.000000D+00
     10   0.440207D-01 -0.600808D-01 -0.676759D-01  0.000000D+00  0.996516D-01
     11   0.136203D-02  0.494671D-03  0.000000D+00  0.170145D-02  0.000000D+00
     12  -0.496208D-02  0.798827D-03  0.000000D+00 -0.114872D-02  0.000000D+00
     13   0.942508D-03 -0.638808D-02  0.000000D+00 -0.447097D-02  0.000000D+00
     14  -0.193698D-02  0.237027D-02  0.283802D-02  0.000000D+00  0.656425D-02
     15   0.758436D-02 -0.642567D-02  0.000000D+00  0.492209D-02  0.000000D+00
     16  -0.523098D-02  0.426493D-02  0.653072D-02  0.000000D+00  0.233691D-01

 ----------------------------------------------------------------------

 Electric dipole moment (input orientation):
 (Debye = 10**-18 statcoulomb cm , SI units = C m)
                  (au)            (Debye)         (10**-30 SI)
   Tot        0.259289D+00      0.659046D+00      0.219834D+01
   x          0.228083D+00      0.579729D+00      0.193377D+01
   y          0.000000D+00      0.000000D+00      0.000000D+00
   z         -0.123323D+00     -0.313457D+00     -0.104558D+01

 Dipole polarizability, Alpha (input orientation).
 (esu units = cm**3 , SI units = C**2 m**2 J**-1)
 Alpha(0;0):
               (au)            (10**-24 esu)      (10**-40 SI)
   iso        0.660722D+01      0.979089D+00      0.108938D+01
   aniso      0.767692D+01      0.113760D+01      0.126575D+01
   xx         0.230926D+01      0.342197D+00      0.380746D+00
   yx         0.000000D+00      0.000000D+00      0.000000D+00
   yy         0.640199D+01      0.948677D+00      0.105555D+01
   zx        -0.498373D+00     -0.738513D-01     -0.821707D-01
   zy         0.000000D+00      0.000000D+00      0.000000D+00
   zz         0.111104D+02      0.164639D+01      0.183186D+01

 ----------------------------------------------------------------------

 Dipole orientation:
     6         -0.99815031          0.00000000          0.57591984
     1         -1.53834767          1.75545692          1.48453966
     1         -1.53834767         -1.75545692          1.48453966
     8          1.16480027         -0.00000000         -0.62415626

 Electric dipole moment (dipole orientation):
 (Debye = 10**-18 statcoulomb cm , SI units = C m)
                  (au)            (Debye)         (10**-30 SI)
   Tot        0.259289D+00      0.659046D+00      0.219834D+01
   x          0.000000D+00      0.000000D+00      0.000000D+00
   y          0.000000D+00      0.000000D+00      0.000000D+00
   z          0.259289D+00      0.659046D+00      0.219834D+01

 Dipole polarizability, Alpha (dipole orientation).
 (esu units = cm**3 , SI units = C**2 m**2 J**-1)
 Alpha(0;0):
               (au)            (10**-24 esu)      (10**-40 SI)
   iso        0.660722D+01      0.979089D+00      0.108938D+01
   aniso      0.767692D+01      0.113760D+01      0.126575D+01
   xx         0.870242D+01      0.128957D+01      0.143484D+01
   yx         0.000000D+00      0.000000D+00      0.000000D+00
   yy         0.640199D+01      0.948677D+00      0.105555D+01
   zx        -0.395512D+01     -0.586089D+00     -0.652112D+00
   zy         0.000000D+00      0.000000D+00      0.000000D+00
   zz         0.471725D+01      0.699024D+00      0.777769D+00

 ----------------------------------------------------------------------
 Unable to Open any file for archive entry.
 1\1\GINC-CX3-7-2\Freq\RCIS-FC\STO-3G\C1H2O1\RK820\23-Feb-2024\0\\#p CI
 S(Root=1)/STO-3G geom=check Density=Current Freq\\Frequency calculatio
 n for re-optimized first excited state structure.\\0,1\C,0.0168623501,
 0.,-0.6095819009\H,0.3038548659,-0.9289477985,-1.0897277653\H,0.303854
 8659,0.9289477985,-1.0897277653\O,0.002627918,0.,0.6992964316\\Version
 =ES64L-G16RevC.01\State=1-A'\HF=-112.3270185\RMSD=3.201e-09\RMSF=1.705
 e-04\ZeroPoint=0.0282214\Thermal=0.0312386\ETot=-112.1837165\HTot=-112
 .1827723\GTot=-112.2085732\Dipole=0.2280831,0.,-0.1233234\DipoleDeriv=
 -0.4274606,0.,-0.0521293,0.,0.0859748,0.,-0.0596267,0.,-0.538763,0.172
 6636,0.0551491,0.0313586,0.0116649,0.0282365,0.0629506,0.0129535,0.079
 8227,0.1400833,0.1726636,-0.0551491,0.0313586,-0.0116649,0.0282365,-0.
 0629506,0.0129535,-0.0798227,0.1400833,0.0821334,0.,-0.0105879,0.,-0.1
 424479,0.,0.0337197,0.,0.2585964\Polar=2.3092611,0.,6.4019866,-0.49837
 34,0.,11.1104082\Quadrupole=-0.4363731,0.8344502,-0.398077,0.,-0.37493
 62,0.\PG=CS [SG(C1O1),X(H2)]\NImag=0\\0.08483154,0.,0.75159188,-0.1246
 6734,0.,1.01085364,-0.03845401,0.10786344,0.06321166,0.03546758,0.0797
 4726,-0.35039063,-0.14320029,-0.09425781,0.36237076,0.04742428,-0.1454
 4010,-0.12845071,-0.05770156,0.15902972,0.14682292,-0.03845401,-0.1078
 6344,0.06321166,0.00233674,0.01315794,-0.00281229,0.03546758,-0.079747
 26,-0.35039063,0.14320029,-0.01315794,-0.01457194,0.01711494,0.0942578
 1,0.36237076,0.04742428,0.14544010,-0.12845071,-0.00281229,-0.01711494
 ,0.01256419,-0.05770156,-0.15902972,0.14682292,-0.00792352,0.,-0.00175
 597,0.00064969,0.00135262,0.01308957,0.00064969,-0.00135262,0.01308957
 ,0.00662415,0.,-0.05081063,0.,-0.00044769,0.00259181,-0.03070457,0.000
 44769,0.00259181,0.03070457,0.,0.04562702,0.02981878,0.,-0.75395222,-0
 .00269781,0.00128552,-0.03093640,-0.00269781,-0.00128552,-0.03093640,-
 0.02442316,0.,0.81582502\\0.00000622,0.,-0.00045397,-0.00000918,0.0000
 8376,0.00005176,-0.00000918,-0.00008376,0.00005176,0.00001215,0.,0.000
 35044\\\@
 The archive entry for this job was punched.


 THE SOLUTION TO A PROBLEM CHANGES THE PROBLEM.

                                 -- JOHN PEERS
           PAUL DICKSON'S "THE OFFICIAL RULES"
 Job cpu time:       0 days  0 hours  0 minutes  1.4 seconds.
 Elapsed time:       0 days  0 hours  0 minutes  1.4 seconds.
 File lengths (MBytes):  RWF=      6 Int=      0 D2E=      0 Chk=      1 Scr=      1
 Normal termination of Gaussian 16 at Fri Feb 23 11:03:25 2024.
