 Entering Gaussian System, Link 0=g16
 Input=CH2O_CAM-B3LYP_linked.gjf
 Output=CH2O_CAM-B3LYP_linked.log
 Initial command:
 /apps/gaussian/g16-c01-avx2/g16/l1.exe "/var/tmp/pbs.8976931.pbs/Gau-1733874.inp" -scrdir="/var/tmp/pbs.8976931.pbs/"
 Entering Link 1 = /apps/gaussian/g16-c01-avx2/g16/l1.exe PID=   1733875.
  
 Copyright (c) 1988-2019, Gaussian, Inc.  All Rights Reserved.
  
 This is part of the Gaussian(R) 16 program.  It is based on
 the Gaussian(R) 09 system (copyright 2009, Gaussian, Inc.),
 the Gaussian(R) 03 system (copyright 2003, Gaussian, Inc.),
 the Gaussian(R) 98 system (copyright 1998, Gaussian, Inc.),
 the Gaussian(R) 94 system (copyright 1995, Gaussian, Inc.),
 the Gaussian 92(TM) system (copyright 1992, Gaussian, Inc.),
 the Gaussian 90(TM) system (copyright 1990, Gaussian, Inc.),
 the Gaussian 88(TM) system (copyright 1988, Gaussian, Inc.),
 the Gaussian 86(TM) system (copyright 1986, Carnegie Mellon
 University), and the Gaussian 82(TM) system (copyright 1983,
 Carnegie Mellon University). Gaussian is a federally registered
 trademark of Gaussian, Inc.
  
 This software contains proprietary and confidential information,
 including trade secrets, belonging to Gaussian, Inc.
  
 This software is provided under written license and may be
 used, copied, transmitted, or stored only in accord with that
 written license.
  
 The following legend is applicable only to US Government
 contracts under FAR:
  
                    RESTRICTED RIGHTS LEGEND
  
 Use, reproduction and disclosure by the US Government is
 subject to restrictions as set forth in subparagraphs (a)
 and (c) of the Commercial Computer Software - Restricted
 Rights clause in FAR 52.227-19.
  
 Gaussian, Inc.
 340 Quinnipiac St., Bldg. 40, Wallingford CT 06492
  
  
 ---------------------------------------------------------------
 Warning -- This program may not be used in any manner that
 competes with the business of Gaussian, Inc. or will provide
 assistance to any competitor of Gaussian, Inc.  The licensee
 of this program is prohibited from giving any competitor of
 Gaussian, Inc. access to this program.  By using this program,
 the user acknowledges that Gaussian, Inc. is engaged in the
 business of creating and licensing software in the field of
 computational chemistry and represents and warrants to the
 licensee that it is not a competitor of Gaussian, Inc. and that
 it will not use this program in any manner prohibited above.
 ---------------------------------------------------------------
  

 Cite this work as:
 Gaussian 16, Revision C.01,
 M. J. Frisch, G. W. Trucks, H. B. Schlegel, G. E. Scuseria, 
 M. A. Robb, J. R. Cheeseman, G. Scalmani, V. Barone, 
 G. A. Petersson, H. Nakatsuji, X. Li, M. Caricato, A. V. Marenich, 
 J. Bloino, B. G. Janesko, R. Gomperts, B. Mennucci, H. P. Hratchian, 
 J. V. Ortiz, A. F. Izmaylov, J. L. Sonnenberg, D. Williams-Young, 
 F. Ding, F. Lipparini, F. Egidi, J. Goings, B. Peng, A. Petrone, 
 T. Henderson, D. Ranasinghe, V. G. Zakrzewski, J. Gao, N. Rega, 
 G. Zheng, W. Liang, M. Hada, M. Ehara, K. Toyota, R. Fukuda, 
 J. Hasegawa, M. Ishida, T. Nakajima, Y. Honda, O. Kitao, H. Nakai, 
 T. Vreven, K. Throssell, J. A. Montgomery, Jr., J. E. Peralta, 
 F. Ogliaro, M. J. Bearpark, J. J. Heyd, E. N. Brothers, K. N. Kudin, 
 V. N. Staroverov, T. A. Keith, R. Kobayashi, J. Normand, 
 K. Raghavachari, A. P. Rendell, J. C. Burant, S. S. Iyengar, 
 J. Tomasi, M. Cossi, J. M. Millam, M. Klene, C. Adamo, R. Cammi, 
 J. W. Ochterski, R. L. Martin, K. Morokuma, O. Farkas, 
 J. B. Foresman, and D. J. Fox, Gaussian, Inc., Wallingford CT, 2019.
 
 ******************************************
 Gaussian 16:  ES64L-G16RevC.01  3-Jul-2019
                23-Feb-2024 
 ******************************************
 %chk=CAM-B3LYP_job1
 %NProc=32
 Will use up to   32 processors via shared memory.
 %Mem=110GB
 ----------------------------------------
 #p /CAM-B3LYP geom=connectivity Opt Freq
 ----------------------------------------
 1/18=20,19=15,26=3,38=1,57=2/1,3;
 2/9=110,12=2,17=6,18=5,40=1/2;
 3/11=2,25=1,30=1,71=1,74=-40/1,2,3;
 4//1;
 5/5=2,38=5/2;
 6/7=2,8=2,9=2,10=2,28=1/1;
 7//1,2,3,16;
 1/18=20,19=15,26=3/3(2);
 2/9=110/2;
 99//99;
 2/9=110/2;
 3/11=2,25=1,30=1,71=1,74=-40/1,2,3;
 4/5=5,16=3,69=1/1;
 5/5=2,38=5/2;
 7//1,2,3,16;
 1/18=20,19=15,26=3/3(-5);
 2/9=110/2;
 6/7=2,8=2,9=2,10=2,19=2,28=1/1;
 99/9=1/99;
 Leave Link    1 at Fri Feb 23 12:42:37 2024, MaxMem= 14763950080 cpu:               0.5 elap:               0.0
 (Enter /apps/gaussian/g16-c01-avx2/g16/l101.exe)
 --------------------------------------------------------------------
 Ground state optimization and frequency calculation for formaldehyde
 --------------------------------------------------------------------
 Symbolic Z-matrix:
 Charge =  0 Multiplicity = 1
 C                    -0.52227  -0.40421   0. 
 H                     0.0129   -1.33076   0. 
 H                    -1.59227  -0.40441   0. 
 O                     0.10673   0.68571   0. 
 
 ITRead=  0  0  0  0
 MicOpt= -1 -1 -1 -1
 NAtoms=      4 NQM=        4 NQMF=       0 NMMI=      0 NMMIF=      0
                NMic=       0 NMicF=      0.
                    Isotopes and Nuclear Properties:
 (Nuclear quadrupole moments (NQMom) in fm**2, nuclear magnetic moments (NMagM)
  in nuclear magnetons)

  Atom         1           2           3           4
 IAtWgt=          12           1           1          16
 AtmWgt=  12.0000000   1.0078250   1.0078250  15.9949146
 NucSpn=           0           1           1           0
 AtZEff=  -0.0000000  -0.0000000  -0.0000000  -0.0000000
 NQMom=    0.0000000   0.0000000   0.0000000   0.0000000
 NMagM=    0.0000000   2.7928460   2.7928460   0.0000000
 AtZNuc=   6.0000000   1.0000000   1.0000000   8.0000000
 Leave Link  101 at Fri Feb 23 12:42:38 2024, MaxMem= 14763950080 cpu:               4.7 elap:               0.2
 (Enter /apps/gaussian/g16-c01-avx2/g16/l103.exe)

 GradGradGradGradGradGradGradGradGradGradGradGradGradGradGradGradGradGrad
 Berny optimization.
 Initialization pass.
                           ----------------------------
                           !    Initial Parameters    !
                           ! (Angstroms and Degrees)  !
 --------------------------                            --------------------------
 ! Name  Definition              Value          Derivative Info.                !
 --------------------------------------------------------------------------------
 ! R1    R(1,2)                  1.07           estimate D2E/DX2                !
 ! R2    R(1,3)                  1.07           estimate D2E/DX2                !
 ! R3    R(1,4)                  1.2584         estimate D2E/DX2                !
 ! A1    A(2,1,3)              120.0            estimate D2E/DX2                !
 ! A2    A(2,1,4)              120.0            estimate D2E/DX2                !
 ! A3    A(3,1,4)              120.0            estimate D2E/DX2                !
 ! D1    D(2,1,4,3)            180.0            estimate D2E/DX2                !
 --------------------------------------------------------------------------------
 Trust Radius=3.00D-01 FncErr=1.00D-07 GrdErr=1.00D-06 EigMax=2.50D+02 EigMin=1.00D-04
 Number of steps in this run=     20 maximum allowed number of steps=    100.
 GradGradGradGradGradGradGradGradGradGradGradGradGradGradGradGradGradGrad

 Leave Link  103 at Fri Feb 23 12:42:38 2024, MaxMem= 14763950080 cpu:               0.2 elap:               0.0
 (Enter /apps/gaussian/g16-c01-avx2/g16/l202.exe)
                          Input orientation:                          
 ---------------------------------------------------------------------
 Center     Atomic      Atomic             Coordinates (Angstroms)
 Number     Number       Type             X           Y           Z
 ---------------------------------------------------------------------
      1          6           0       -0.522268   -0.404213    0.000000
      2          1           0        0.012900   -1.330763    0.000000
      3          1           0       -1.592268   -0.404408    0.000000
      4          8           0        0.106734    0.685708    0.000000
 ---------------------------------------------------------------------
                    Distance matrix (angstroms):
                    1          2          3          4
     1  C    0.000000
     2  H    1.070000   0.000000
     3  H    1.070000   1.853294   0.000000
     4  O    1.258400   2.018653   2.018653   0.000000
 Stoichiometry    CH2O
 Framework group  C2V[C2(CO),SGV(H2)]
 Deg. of freedom     3
 Full point group                 C2V     NOp   4
 Largest Abelian subgroup         C2V     NOp   4
 Largest concise Abelian subgroup C2      NOp   2
                         Standard orientation:                         
 ---------------------------------------------------------------------
 Center     Atomic      Atomic             Coordinates (Angstroms)
 Number     Number       Type             X           Y           Z
 ---------------------------------------------------------------------
      1          6           0        0.000000   -0.000000   -0.562325
      2          1           0        0.000000   -0.926647   -1.097325
      3          1           0        0.000000    0.926647   -1.097325
      4          8           0        0.000000   -0.000000    0.696075
 ---------------------------------------------------------------------
 Rotational constants (GHZ):         291.9935432          36.5845887          32.5111827
 Leave Link  202 at Fri Feb 23 12:42:38 2024, MaxMem= 14763950080 cpu:               0.8 elap:               0.1
 (Enter /apps/gaussian/g16-c01-avx2/g16/l301.exe)
 Standard basis: STO-3G (5D, 7F)
 Ernie: Thresh=  0.10000D-02 Tol=  0.10000D-05 Strict=F.
 There are     7 symmetry adapted cartesian basis functions of A1  symmetry.
 There are     0 symmetry adapted cartesian basis functions of A2  symmetry.
 There are     2 symmetry adapted cartesian basis functions of B1  symmetry.
 There are     3 symmetry adapted cartesian basis functions of B2  symmetry.
 There are     7 symmetry adapted basis functions of A1  symmetry.
 There are     0 symmetry adapted basis functions of A2  symmetry.
 There are     2 symmetry adapted basis functions of B1  symmetry.
 There are     3 symmetry adapted basis functions of B2  symmetry.
    12 basis functions,    36 primitive gaussians,    12 cartesian basis functions
     8 alpha electrons        8 beta electrons
       nuclear repulsion energy        30.5992945771 Hartrees.
 IExCor=20419 DFT=T Ex+Corr=CAM-B3LYP ExCW=0 ScaHFX=  1.000000
 ScaDFX=  1.000000  1.000000  1.000000  0.810000 ScalE2=  1.000000  1.000000
 IRadAn=      5 IRanWt=     -1 IRanGd=            0 ICorTp=0 IEmpDi=  4
 HFx  wShort=  0.000000 wLong=  0.330000 cFull=  0.190000 cShort=  0.000000 cLong=  0.460000
 DFx  wShort=  0.000000 wLong=  0.330000 cFull=  0.190000 cShort=  0.000000 cLong=  0.460000
 NAtoms=    4 NActive=    4 NUniq=    3 SFac= 1.78D+00 NAtFMM=   60 NAOKFM=F Big=F
 Integral buffers will be    131072 words long.
 Raffenetti 2 integral format.
 Two-electron integral symmetry is turned on.
 Leave Link  301 at Fri Feb 23 12:42:39 2024, MaxMem= 14763950080 cpu:               0.7 elap:               0.2
 (Enter /apps/gaussian/g16-c01-avx2/g16/l302.exe)
 NPDir=0 NMtPBC=     1 NCelOv=     1 NCel=       1 NClECP=     1 NCelD=      1
         NCelK=      1 NCelE2=     1 NClLst=     1 CellRange=     0.0.
 One-electron integrals computed using PRISM.
 One-electron integral symmetry used in STVInt
 NBasis=    12 RedAO= T EigKep=  2.44D-01  NBF=     7     0     2     3
 NBsUse=    12 1.00D-06 EigRej= -1.00D+00 NBFU=     7     0     2     3
 Precomputing XC quadrature grid using
 IXCGrd= 4 IRadAn=           5 IRanWt=          -1 IRanGd=           0 AccXCQ= 0.00D+00.
 Generated NRdTot=       0 NPtTot=           0 NUsed=           0 NTot=          32
 NSgBfM=    12    12    12    12    12 MxSgAt=     4 MxSgA2=     4.
 Leave Link  302 at Fri Feb 23 12:42:40 2024, MaxMem= 14763950080 cpu:               2.0 elap:               0.1
 (Enter /apps/gaussian/g16-c01-avx2/g16/l303.exe)
 DipDrv:  MaxL=1.
 Leave Link  303 at Fri Feb 23 12:42:41 2024, MaxMem= 14763950080 cpu:               0.3 elap:               0.0
 (Enter /apps/gaussian/g16-c01-avx2/g16/l401.exe)
 ExpMin= 1.69D-01 ExpMax= 1.31D+02 ExpMxC= 1.31D+02 IAcc=3 IRadAn=         5 AccDes= 0.00D+00
 Harris functional with IExCor=20419 and IRadAn=       5 diagonalized for initial guess.
 HarFok:  IExCor=20419 AccDes= 0.00D+00 IRadAn=         5 IDoV= 1 UseB2=F ITyADJ=14
 ICtDFT=  3500011 ScaDFX=  1.000000  1.000000  1.000000  1.000000
 FoFCou: FMM=F IPFlag=           0 FMFlag=      100000 FMFlg1=           0
         NFxFlg=           0 DoJE=T BraDBF=F KetDBF=T FulRan=T
         wScrn=  0.000000 ICntrl=       500 IOpCl=  0 I1Cent=   200000004 NGrid=           0
         NMat0=    1 NMatS0=      1 NMatT0=    0 NMatD0=    1 NMtDS0=    0 NMtDT0=    0
 Petite list used in FoFCou.
 Harris En= -108.902943581614    
 JPrj=0 DoOrth=F DoCkMO=F.
 Initial guess orbital symmetries:
       Occupied  (A1) (A1) (A1) (A1) (B2) (A1) (B1) (B2)
       Virtual   (B1) (A1) (B2) (A1)
 The electronic state of the initial guess is 1-A1.
 Leave Link  401 at Fri Feb 23 12:42:42 2024, MaxMem= 14763950080 cpu:               6.0 elap:               0.2
 (Enter /apps/gaussian/g16-c01-avx2/g16/l502.exe)
 Keep R1 ints in memory in symmetry-blocked form, NReq=27609082.
 FoFCou: FMM=F IPFlag=           0 FMFlag=           0 FMFlg1=           0
         NFxFlg=           0 DoJE=F BraDBF=F KetDBF=F FulRan=T
         wScrn=  0.000000 ICntrl=       600 IOpCl=  0 I1Cent=           0 NGrid=           0
         NMat0=    1 NMatS0=     78 NMatT0=    0 NMatD0=    1 NMtDS0=    0 NMtDT0=    0
 Petite list used in FoFCou.
 Closed shell SCF:
 Using DIIS extrapolation, IDIIS=  1040.
 NGot= 14763950080 LenX= 14763946320 LenY= 14763945438
 Requested convergence on RMS density matrix=1.00D-08 within 128 cycles.
 Requested convergence on MAX density matrix=1.00D-06.
 Requested convergence on             energy=1.00D-06.
 No special actions if energy rises.
 Integral accuracy reduced to 1.0D-05 until final iterations.

 Cycle   1  Pass 0  IDiag  1:
 E= -112.891050152106    
 DIIS: error= 3.07D-02 at cycle   1 NSaved=   1.
 NSaved= 1 IEnMin= 1 EnMin= -112.891050152106     IErMin= 1 ErrMin= 3.07D-02
 ErrMax= 3.07D-02  0.00D+00 EMaxC= 1.00D-01 BMatC= 7.89D-03 BMatP= 7.89D-03
 IDIUse=3 WtCom= 6.93D-01 WtEn= 3.07D-01
 Coeff-Com:  0.100D+01
 Coeff-En:   0.100D+01
 Coeff:      0.100D+01
 Gap=     0.352 Goal=   None    Shift=    0.000
 GapD=    0.352 DampG=1.000 DampE=0.500 DampFc=0.5000 IDamp=-1.
 Damping current iteration by 5.00D-01
 RMSDP=6.09D-03 MaxDP=2.87D-02              OVMax= 0.00D+00

 Cycle   2  Pass 0  IDiag  1:
 E= -112.892380881949     Delta-E=       -0.001330729843 Rises=F Damp=T
 DIIS: error= 1.70D-02 at cycle   2 NSaved=   2.
 NSaved= 2 IEnMin= 2 EnMin= -112.892380881949     IErMin= 2 ErrMin= 1.70D-02
 ErrMax= 1.70D-02  0.00D+00 EMaxC= 1.00D-01 BMatC= 1.98D-03 BMatP= 7.89D-03
 IDIUse=3 WtCom= 8.30D-01 WtEn= 1.70D-01
 Coeff-Com: -0.775D+00 0.178D+01
 Coeff-En:   0.000D+00 0.100D+01
 Coeff:     -0.643D+00 0.164D+01
 Gap=     0.337 Goal=   None    Shift=    0.000
 RMSDP=4.72D-03 MaxDP=2.04D-02 DE=-1.33D-03 OVMax= 0.00D+00

 Cycle   3  Pass 0  IDiag  1:
 E= -112.893059785463     Delta-E=       -0.000678903514 Rises=F Damp=F
 DIIS: error= 9.15D-03 at cycle   3 NSaved=   3.
 NSaved= 3 IEnMin= 3 EnMin= -112.893059785463     IErMin= 3 ErrMin= 9.15D-03
 ErrMax= 9.15D-03  0.00D+00 EMaxC= 1.00D-01 BMatC= 8.05D-04 BMatP= 1.98D-03
 IDIUse=3 WtCom= 9.09D-01 WtEn= 9.15D-02
 Coeff-Com: -0.538D+00 0.104D+01 0.497D+00
 Coeff-En:   0.000D+00 0.000D+00 0.100D+01
 Coeff:     -0.489D+00 0.946D+00 0.543D+00
 Gap=     0.345 Goal=   None    Shift=    0.000
 RMSDP=2.67D-03 MaxDP=1.74D-02 DE=-6.79D-04 OVMax= 0.00D+00

 Cycle   4  Pass 0  IDiag  1:
 E= -112.893927097498     Delta-E=       -0.000867312035 Rises=F Damp=F
 DIIS: error= 1.22D-03 at cycle   4 NSaved=   4.
 NSaved= 4 IEnMin= 4 EnMin= -112.893927097498     IErMin= 4 ErrMin= 1.22D-03
 ErrMax= 1.22D-03  0.00D+00 EMaxC= 1.00D-01 BMatC= 1.31D-05 BMatP= 8.05D-04
 IDIUse=3 WtCom= 9.88D-01 WtEn= 1.22D-02
 Coeff-Com:  0.126D+00-0.248D+00 0.232D-01 0.110D+01
 Coeff-En:   0.000D+00 0.000D+00 0.000D+00 0.100D+01
 Coeff:      0.125D+00-0.245D+00 0.229D-01 0.110D+01
 Gap=     0.345 Goal=   None    Shift=    0.000
 RMSDP=3.25D-04 MaxDP=2.21D-03 DE=-8.67D-04 OVMax= 0.00D+00

 Cycle   5  Pass 0  IDiag  1:
 E= -112.893942103548     Delta-E=       -0.000015006051 Rises=F Damp=F
 DIIS: error= 2.35D-05 at cycle   5 NSaved=   5.
 NSaved= 5 IEnMin= 5 EnMin= -112.893942103548     IErMin= 5 ErrMin= 2.35D-05
 ErrMax= 2.35D-05  0.00D+00 EMaxC= 1.00D-01 BMatC= 7.96D-09 BMatP= 1.31D-05
 IDIUse=1 WtCom= 1.00D+00 WtEn= 0.00D+00
 Coeff-Com: -0.126D-01 0.248D-01-0.719D-02-0.121D+00 0.112D+01
 Coeff:     -0.126D-01 0.248D-01-0.719D-02-0.121D+00 0.112D+01
 Gap=     0.345 Goal=   None    Shift=    0.000
 RMSDP=1.05D-05 MaxDP=4.78D-05 DE=-1.50D-05 OVMax= 0.00D+00

 Cycle   6  Pass 0  IDiag  1:
 E= -112.893942112983     Delta-E=       -0.000000009435 Rises=F Damp=F
 DIIS: error= 1.48D-06 at cycle   6 NSaved=   6.
 NSaved= 6 IEnMin= 6 EnMin= -112.893942112983     IErMin= 6 ErrMin= 1.48D-06
 ErrMax= 1.48D-06  0.00D+00 EMaxC= 1.00D-01 BMatC= 3.58D-11 BMatP= 7.96D-09
 IDIUse=1 WtCom= 1.00D+00 WtEn= 0.00D+00
 Coeff-Com: -0.217D-02 0.428D-02-0.970D-03-0.209D-01 0.584D-01 0.961D+00
 Coeff:     -0.217D-02 0.428D-02-0.970D-03-0.209D-01 0.584D-01 0.961D+00
 Gap=     0.345 Goal=   None    Shift=    0.000
 RMSDP=8.88D-07 MaxDP=4.45D-06 DE=-9.44D-09 OVMax= 0.00D+00

 Initial convergence to 1.0D-05 achieved.  Increase integral accuracy.
 Cycle   7  Pass 1  IDiag  1:
 E= -112.893943068901     Delta-E=       -0.000000955918 Rises=F Damp=F
 DIIS: error= 5.71D-07 at cycle   1 NSaved=   1.
 NSaved= 1 IEnMin= 1 EnMin= -112.893943068901     IErMin= 1 ErrMin= 5.71D-07
 ErrMax= 5.71D-07  0.00D+00 EMaxC= 1.00D-01 BMatC= 6.43D-12 BMatP= 6.43D-12
 IDIUse=1 WtCom= 1.00D+00 WtEn= 0.00D+00
 Coeff-Com:  0.100D+01
 Coeff:      0.100D+01
 Gap=     0.345 Goal=   None    Shift=    0.000
 RMSDP=8.88D-07 MaxDP=4.45D-06 DE=-9.56D-07 OVMax= 0.00D+00

 Cycle   8  Pass 1  IDiag  1:
 E= -112.893943068897     Delta-E=        0.000000000004 Rises=F Damp=F
 DIIS: error= 1.10D-06 at cycle   2 NSaved=   2.
 NSaved= 2 IEnMin= 1 EnMin= -112.893943068901     IErMin= 1 ErrMin= 5.71D-07
 ErrMax= 1.10D-06  0.00D+00 EMaxC= 1.00D-01 BMatC= 9.74D-12 BMatP= 6.43D-12
 IDIUse=1 WtCom= 1.00D+00 WtEn= 0.00D+00
 Coeff-Com:  0.554D+00 0.446D+00
 Coeff:      0.554D+00 0.446D+00
 Gap=     0.345 Goal=   None    Shift=    0.000
 RMSDP=2.99D-07 MaxDP=2.09D-06 DE= 4.32D-12 OVMax= 0.00D+00

 Cycle   9  Pass 1  IDiag  1:
 E= -112.893943068908     Delta-E=       -0.000000000011 Rises=F Damp=F
 DIIS: error= 1.07D-07 at cycle   3 NSaved=   3.
 NSaved= 3 IEnMin= 3 EnMin= -112.893943068908     IErMin= 3 ErrMin= 1.07D-07
 ErrMax= 1.07D-07  0.00D+00 EMaxC= 1.00D-01 BMatC= 2.08D-13 BMatP= 6.43D-12
 IDIUse=1 WtCom= 1.00D+00 WtEn= 0.00D+00
 Coeff-Com: -0.185D+00 0.178D-01 0.117D+01
 Coeff:     -0.185D+00 0.178D-01 0.117D+01
 Gap=     0.345 Goal=   None    Shift=    0.000
 RMSDP=5.38D-08 MaxDP=2.69D-07 DE=-1.13D-11 OVMax= 0.00D+00

 Cycle  10  Pass 1  IDiag  1:
 E= -112.893943068908     Delta-E=       -0.000000000000 Rises=F Damp=F
 DIIS: error= 8.87D-09 at cycle   4 NSaved=   4.
 NSaved= 4 IEnMin= 4 EnMin= -112.893943068908     IErMin= 4 ErrMin= 8.87D-09
 ErrMax= 8.87D-09  0.00D+00 EMaxC= 1.00D-01 BMatC= 1.56D-15 BMatP= 2.08D-13
 IDIUse=1 WtCom= 1.00D+00 WtEn= 0.00D+00
 Coeff-Com: -0.398D-01-0.284D-02 0.134D+00 0.909D+00
 Coeff:     -0.398D-01-0.284D-02 0.134D+00 0.909D+00
 Gap=     0.345 Goal=   None    Shift=    0.000
 RMSDP=5.83D-09 MaxDP=2.71D-08 DE=-1.14D-13 OVMax= 0.00D+00

 SCF Done:  E(RCAM-B3LYP) =  -112.893943069     A.U. after   10 cycles
            NFock= 10  Conv=0.58D-08     -V/T= 2.0143
 KE= 1.113008298544D+02 PE=-3.262217283045D+02 EE= 7.142766080409D+01
 Leave Link  502 at Fri Feb 23 12:42:43 2024, MaxMem= 14763950080 cpu:               6.4 elap:               0.2
 (Enter /apps/gaussian/g16-c01-avx2/g16/l601.exe)
 Copying SCF densities to generalized density rwf, IOpCl= 0 IROHF=0.

 **********************************************************************

            Population analysis using the SCF Density.

 **********************************************************************

 Orbital symmetries:
       Occupied  (A1) (A1) (A1) (A1) (B2) (A1) (B1) (B2)
       Virtual   (B1) (A1) (B2) (A1)
 The electronic state is 1-A1.
 Alpha  occ. eigenvalues --  -18.98341 -10.14677  -1.05906  -0.66749  -0.51993
 Alpha  occ. eigenvalues --   -0.40487  -0.36261  -0.22416
 Alpha virt. eigenvalues --    0.12051   0.47866   0.58854   0.61736
          Condensed to atoms (all electrons):
               1          2          3          4
     1  C    4.845991   0.372547   0.372547   0.423421
     2  H    0.372547   0.604270  -0.035020  -0.024009
     3  H    0.372547  -0.035020   0.604270  -0.024009
     4  O    0.423421  -0.024009  -0.024009   7.774514
 Mulliken charges:
               1
     1  C   -0.014507
     2  H    0.082212
     3  H    0.082212
     4  O   -0.149917
 Sum of Mulliken charges =   0.00000
 Mulliken charges with hydrogens summed into heavy atoms:
               1
     1  C    0.149917
     4  O   -0.149917
 Electronic spatial extent (au):  <R**2>=             59.1186
 Charge=              0.0000 electrons
 Dipole moment (field-independent basis, Debye):
    X=              0.0000    Y=              0.0000    Z=             -1.3958  Tot=              1.3958
 Quadrupole moment (field-independent basis, Debye-Ang):
   XX=            -10.4532   YY=            -10.3943   ZZ=            -11.1221
   XY=              0.0000   XZ=             -0.0000   YZ=             -0.0000
 Traceless Quadrupole moment (field-independent basis, Debye-Ang):
   XX=              0.2033   YY=              0.2622   ZZ=             -0.4655
   XY=              0.0000   XZ=             -0.0000   YZ=             -0.0000
 Octapole moment (field-independent basis, Debye-Ang**2):
  XXX=             -0.0000  YYY=             -0.0000  ZZZ=              2.9260  XYY=             -0.0000
  XXY=             -0.0000  XXZ=              1.6800  XZZ=             -0.0000  YZZ=             -0.0000
  YYZ=              0.3509  XYZ=             -0.0000
 Hexadecapole moment (field-independent basis, Debye-Ang**3):
 XXXX=             -6.9144 YYYY=            -14.1872 ZZZZ=            -40.3939 XXXY=             -0.0000
 XXXZ=              0.0000 YYYX=             -0.0000 YYYZ=              0.0000 ZZZX=              0.0000
 ZZZY=             -0.0000 XXYY=             -3.7750 XXZZ=             -7.7870 YYZZ=             -8.2660
 XXYZ=              0.0000 YYXZ=             -0.0000 ZZXY=              0.0000
 N-N= 3.059929457712D+01 E-N=-3.262217284812D+02  KE= 1.113008298544D+02
 Symmetry A1   KE= 1.008641774579D+02
 Symmetry A2   KE= 0.000000000000D+00
 Symmetry B1   KE= 3.567022823698D+00
 Symmetry B2   KE= 6.869629572790D+00
 No NMR shielding tensors so no spin-rotation constants.
 Leave Link  601 at Fri Feb 23 12:42:43 2024, MaxMem= 14763950080 cpu:               1.6 elap:               0.1
 (Enter /apps/gaussian/g16-c01-avx2/g16/l701.exe)
 ... and contract with generalized density number  0.
 Compute integral first derivatives.
 Leave Link  701 at Fri Feb 23 12:42:44 2024, MaxMem= 14763950080 cpu:               1.6 elap:               0.1
 (Enter /apps/gaussian/g16-c01-avx2/g16/l702.exe)
 L702 exits ... SP integral derivatives will be done elsewhere.
 Leave Link  702 at Fri Feb 23 12:42:44 2024, MaxMem= 14763950080 cpu:               0.3 elap:               0.0
 (Enter /apps/gaussian/g16-c01-avx2/g16/l703.exe)
 Integral derivatives from FoFJK, PRISM(SPDF).
 Compute integral first derivatives, UseDBF=F ICtDFT=           0.
 Calling FoFJK, ICntrl=      2127 FMM=F ISym2X=1 I1Cent= 0 IOpClX= 0 NMat=1 NMatS=1 NMatT=0.
 FoFJK:  IHMeth= 1 ICntrl=    2127 DoSepK=T KAlg= 0 I1Cent=           0 FoldK=F
 IRaf=         1 NMat=       1 IRICut=       1 DoRegI=T DoRafI=F ISym2E= 1 IDoP0=0 IntGTp=1.
 FoFCou: FMM=F IPFlag=           0 FMFlag=      100000 FMFlg1=         800
         NFxFlg=           0 DoJE=F BraDBF=F KetDBF=F FulRan=T
         wScrn=  0.000000 ICntrl=      2527 IOpCl=  0 I1Cent=           0 NGrid=           0
         NMat0=    1 NMatS0=      1 NMatT0=    0 NMatD0=    1 NMtDS0=    0 NMtDT0=    0
 Petite list used in FoFCou.
 Leave Link  703 at Fri Feb 23 12:42:45 2024, MaxMem= 14763950080 cpu:               3.4 elap:               0.1
 (Enter /apps/gaussian/g16-c01-avx2/g16/l716.exe)
 Dipole        = 1.18727754D-17 2.83362929D-16-5.49167024D-01
 ***** Axes restored to original set *****
 -------------------------------------------------------------------
 Center     Atomic                   Forces (Hartrees/Bohr)
 Number     Number              X              Y              Z
 -------------------------------------------------------------------
      1        6           0.033802692    0.058572587   -0.000000000
      2        1           0.010302911   -0.038591518    0.000000000
      3        1          -0.038568914   -0.010387211    0.000000000
      4        8          -0.005536689   -0.009593858   -0.000000000
 -------------------------------------------------------------------
 Cartesian Forces:  Max     0.058572587 RMS     0.025636851
 Leave Link  716 at Fri Feb 23 12:42:46 2024, MaxMem= 14763950080 cpu:               0.4 elap:               0.0
 (Enter /apps/gaussian/g16-c01-avx2/g16/l103.exe)

 GradGradGradGradGradGradGradGradGradGradGradGradGradGradGradGradGradGrad
 Berny optimization.
 FormGI is forming the generalized inverse of G from B-inverse, IUseBI=4.
 Internal  Forces:  Max     0.038570803 RMS     0.022012327
 Search for a local minimum.
 Step number   1 out of a maximum of   20
 All quantities printed in internal units (Hartrees-Bohrs-Radians)
 RMS Force = .22012D-01 SwitMx=.10000D-02 MixMth= 1
 Mixed Optimization -- RFO/linear search
 Second derivative matrix not updated -- first step.
 The second derivative matrix:
                          R1        R2        R3        A1        A2
           R1           0.37230
           R2           0.00000   0.37230
           R3           0.00000   0.00000   0.80209
           A1           0.00000   0.00000   0.00000   0.16000
           A2           0.00000   0.00000   0.00000   0.00000   0.16000
           A3           0.00000   0.00000   0.00000   0.00000   0.00000
           D1           0.00000   0.00000   0.00000   0.00000   0.00000
                          A3        D1
           A3           0.16000
           D1           0.00000   0.03565
 ITU=  0
     Eigenvalues ---    0.03565   0.16000   0.16000   0.37230   0.37230
     Eigenvalues ---    0.80209
 RFO step:  Lambda=-9.67165246D-03 EMin= 3.56487693D-02
 Linear search not attempted -- first point.
 Iteration  1 RMS(Cart)=  0.05029570 RMS(Int)=  0.00203236
 Iteration  2 RMS(Cart)=  0.00218993 RMS(Int)=  0.00000262
 Iteration  3 RMS(Cart)=  0.00000213 RMS(Int)=  0.00000000
 Iteration  4 RMS(Cart)=  0.00000000 RMS(Int)=  0.00000000
 ITry= 1 IFail=0 DXMaxC= 7.24D-02 DCOld= 1.00D+10 DXMaxT= 3.00D-01 DXLimC= 3.00D+00 Rises=F
 ClnCor:  largest displacement from symmetrization is 3.10D-09 for atom     1.
 Variable       Old X    -DE/DX   Delta X   Delta X   Delta X     New X
                                 (Linear)    (Quad)   (Total)
    R1        2.02201   0.03857   0.00000   0.10098   0.10098   2.12298
    R2        2.02201   0.03857   0.00000   0.10098   0.10098   2.12298
    R3        2.37803  -0.01108   0.00000  -0.01365  -0.01365   2.36439
    A1        2.09440  -0.01399   0.00000  -0.08247  -0.08247   2.01193
    A2        2.09440   0.00700   0.00000   0.04123   0.04123   2.13563
    A3        2.09440   0.00700   0.00000   0.04123   0.04123   2.13563
    D1        3.14159   0.00000   0.00000   0.00000   0.00000   3.14159
         Item               Value     Threshold  Converged?
 Maximum Force            0.038571     0.000450     NO 
 RMS     Force            0.022012     0.000300     NO 
 Maximum Displacement     0.072399     0.001800     NO 
 RMS     Displacement     0.050282     0.001200     NO 
 Predicted change in Energy=-4.984682D-03
 Lowest energy point so far.  Saving SCF results.
 GradGradGradGradGradGradGradGradGradGradGradGradGradGradGradGradGradGrad

 Leave Link  103 at Fri Feb 23 12:42:46 2024, MaxMem= 14763950080 cpu:               0.3 elap:               0.0
 (Enter /apps/gaussian/g16-c01-avx2/g16/l202.exe)
                          Input orientation:                          
 ---------------------------------------------------------------------
 Center     Atomic      Atomic             Coordinates (Angstroms)
 Number     Number       Type             X           Y           Z
 ---------------------------------------------------------------------
      1          6           0       -0.504784   -0.373918   -0.000000
      2          1           0        0.016530   -1.369075   -0.000000
      3          1           0       -1.627256   -0.420433   -0.000000
      4          8           0        0.120608    0.709749    0.000000
 ---------------------------------------------------------------------
                    Distance matrix (angstroms):
                    1          2          3          4
     1  C    0.000000
     2  H    1.123435   0.000000
     3  H    1.123435   1.897882   0.000000
     4  O    1.251179   2.081427   2.081427   0.000000
 Stoichiometry    CH2O
 Framework group  C2V[C2(CO),SGV(H2)]
 Deg. of freedom     3
 Full point group                 C2V     NOp   4
 RotChk:  IX=3 Diff= 7.31D-16
 Largest Abelian subgroup         C2V     NOp   4
 Largest concise Abelian subgroup C2      NOp   2
                         Standard orientation:                         
 ---------------------------------------------------------------------
 Center     Atomic      Atomic             Coordinates (Angstroms)
 Number     Number       Type             X           Y           Z
 ---------------------------------------------------------------------
      1          6           0        0.000000    0.000000   -0.550421
      2          1           0       -0.000000   -0.948941   -1.151768
      3          1           0        0.000000    0.948941   -1.151768
      4          8           0       -0.000000   -0.000000    0.700758
 ---------------------------------------------------------------------
 Rotational constants (GHZ):         278.4348711          36.1231819          31.9748720
 Leave Link  202 at Fri Feb 23 12:42:46 2024, MaxMem= 14763950080 cpu:               0.1 elap:               0.0
 (Enter /apps/gaussian/g16-c01-avx2/g16/l301.exe)
 Standard basis: STO-3G (5D, 7F)
 Ernie: Thresh=  0.10000D-02 Tol=  0.10000D-05 Strict=F.
 There are     7 symmetry adapted cartesian basis functions of A1  symmetry.
 There are     0 symmetry adapted cartesian basis functions of A2  symmetry.
 There are     2 symmetry adapted cartesian basis functions of B1  symmetry.
 There are     3 symmetry adapted cartesian basis functions of B2  symmetry.
 There are     7 symmetry adapted basis functions of A1  symmetry.
 There are     0 symmetry adapted basis functions of A2  symmetry.
 There are     2 symmetry adapted basis functions of B1  symmetry.
 There are     3 symmetry adapted basis functions of B2  symmetry.
    12 basis functions,    36 primitive gaussians,    12 cartesian basis functions
     8 alpha electrons        8 beta electrons
       nuclear repulsion energy        30.3003015470 Hartrees.
 IExCor=20419 DFT=T Ex+Corr=CAM-B3LYP ExCW=0 ScaHFX=  1.000000
 ScaDFX=  1.000000  1.000000  1.000000  0.810000 ScalE2=  1.000000  1.000000
 IRadAn=      5 IRanWt=     -1 IRanGd=            0 ICorTp=0 IEmpDi=  4
 HFx  wShort=  0.000000 wLong=  0.330000 cFull=  0.190000 cShort=  0.000000 cLong=  0.460000
 DFx  wShort=  0.000000 wLong=  0.330000 cFull=  0.190000 cShort=  0.000000 cLong=  0.460000
 NAtoms=    4 NActive=    4 NUniq=    3 SFac= 1.78D+00 NAtFMM=   60 NAOKFM=F Big=F
 Integral buffers will be    131072 words long.
 Raffenetti 2 integral format.
 Two-electron integral symmetry is turned on.
 Leave Link  301 at Fri Feb 23 12:42:46 2024, MaxMem= 14763950080 cpu:               0.7 elap:               0.0
 (Enter /apps/gaussian/g16-c01-avx2/g16/l302.exe)
 NPDir=0 NMtPBC=     1 NCelOv=     1 NCel=       1 NClECP=     1 NCelD=      1
         NCelK=      1 NCelE2=     1 NClLst=     1 CellRange=     0.0.
 One-electron integrals computed using PRISM.
 One-electron integral symmetry used in STVInt
 NBasis=    12 RedAO= T EigKep=  2.60D-01  NBF=     7     0     2     3
 NBsUse=    12 1.00D-06 EigRej= -1.00D+00 NBFU=     7     0     2     3
 Precomputing XC quadrature grid using
 IXCGrd= 4 IRadAn=           5 IRanWt=          -1 IRanGd=           0 AccXCQ= 0.00D+00.
 Generated NRdTot=       0 NPtTot=           0 NUsed=           0 NTot=          32
 NSgBfM=    12    12    12    12    12 MxSgAt=     4 MxSgA2=     4.
 Leave Link  302 at Fri Feb 23 12:42:46 2024, MaxMem= 14763950080 cpu:               1.7 elap:               0.1
 (Enter /apps/gaussian/g16-c01-avx2/g16/l303.exe)
 DipDrv:  MaxL=1.
 Leave Link  303 at Fri Feb 23 12:42:46 2024, MaxMem= 14763950080 cpu:               0.3 elap:               0.0
 (Enter /apps/gaussian/g16-c01-avx2/g16/l401.exe)
 Initial guess from the checkpoint file:  "CAM-B3LYP_job1.chk"
 B after Tr=     0.000000   -0.000000    0.000000
         Rot=    1.000000   -0.000000   -0.000000    0.000000 Ang=   0.00 deg.
 Guess basis will be translated and rotated to current coordinates.
 JPrj=2 DoOrth=T DoCkMO=T.
 Initial guess orbital symmetries:
       Occupied  (A1) (A1) (A1) (A1) (B2) (A1) (B1) (B2)
       Virtual   (B1) (A1) (B2) (A1)
 The electronic state of the initial guess is 1-A1.
 Generating alternative initial guess.
 ExpMin= 1.69D-01 ExpMax= 1.31D+02 ExpMxC= 1.31D+02 IAcc=3 IRadAn=         5 AccDes= 0.00D+00
 Harris functional with IExCor=20419 and IRadAn=       5 diagonalized for initial guess.
 HarFok:  IExCor=20419 AccDes= 0.00D+00 IRadAn=         5 IDoV= 1 UseB2=F ITyADJ=14
 ICtDFT=  3500011 ScaDFX=  1.000000  1.000000  1.000000  1.000000
 FoFCou: FMM=F IPFlag=           0 FMFlag=      100000 FMFlg1=           0
         NFxFlg=           0 DoJE=T BraDBF=F KetDBF=T FulRan=T
         wScrn=  0.000000 ICntrl=       500 IOpCl=  0 I1Cent=   200000004 NGrid=           0
         NMat0=    1 NMatS0=      1 NMatT0=    0 NMatD0=    1 NMtDS0=    0 NMtDT0=    0
 Petite list used in FoFCou.
 Harris En= -108.911834268417    
 Leave Link  401 at Fri Feb 23 12:42:46 2024, MaxMem= 14763950080 cpu:               3.0 elap:               0.1
 (Enter /apps/gaussian/g16-c01-avx2/g16/l502.exe)
 Keep R1 ints in memory in symmetry-blocked form, NReq=27609082.
 FoFCou: FMM=F IPFlag=           0 FMFlag=           0 FMFlg1=           0
         NFxFlg=           0 DoJE=F BraDBF=F KetDBF=F FulRan=T
         wScrn=  0.000000 ICntrl=       600 IOpCl=  0 I1Cent=           0 NGrid=           0
         NMat0=    1 NMatS0=     78 NMatT0=    0 NMatD0=    1 NMtDS0=    0 NMtDT0=    0
 Petite list used in FoFCou.
 Closed shell SCF:
 Using DIIS extrapolation, IDIIS=  1040.
 NGot= 14763950080 LenX= 14763946320 LenY= 14763945438
 Requested convergence on RMS density matrix=1.00D-08 within 128 cycles.
 Requested convergence on MAX density matrix=1.00D-06.
 Requested convergence on             energy=1.00D-06.
 No special actions if energy rises.
 Integral accuracy reduced to 1.0D-05 until final iterations.

 Cycle   1  Pass 0  IDiag  1:
 E= -112.898026059234    
 DIIS: error= 3.68D-03 at cycle   1 NSaved=   1.
 NSaved= 1 IEnMin= 1 EnMin= -112.898026059234     IErMin= 1 ErrMin= 3.68D-03
 ErrMax= 3.68D-03  0.00D+00 EMaxC= 1.00D-01 BMatC= 2.96D-04 BMatP= 2.96D-04
 IDIUse=3 WtCom= 9.63D-01 WtEn= 3.68D-02
 Coeff-Com:  0.100D+01
 Coeff-En:   0.100D+01
 Coeff:      0.100D+01
 Gap=     0.354 Goal=   None    Shift=    0.000
 GapD=    0.354 DampG=1.000 DampE=1.000 DampFc=1.0000 IDamp=-1.
 RMSDP=3.19D-03 MaxDP=1.53D-02              OVMax= 0.00D+00

 Cycle   2  Pass 0  IDiag  1:
 E= -112.898337108116     Delta-E=       -0.000311048882 Rises=F Damp=F
 DIIS: error= 3.70D-03 at cycle   2 NSaved=   2.
 NSaved= 2 IEnMin= 2 EnMin= -112.898337108116     IErMin= 1 ErrMin= 3.68D-03
 ErrMax= 3.70D-03  0.00D+00 EMaxC= 1.00D-01 BMatC= 1.85D-04 BMatP= 2.96D-04
 IDIUse=3 WtCom= 9.63D-01 WtEn= 3.70D-02
 Coeff-Com:  0.415D+00 0.585D+00
 Coeff-En:   0.000D+00 0.100D+01
 Coeff:      0.400D+00 0.600D+00
 Gap=     0.348 Goal=   None    Shift=    0.000
 RMSDP=1.66D-03 MaxDP=9.40D-03 DE=-3.11D-04 OVMax= 0.00D+00

 Cycle   3  Pass 0  IDiag  1:
 E= -112.898487266611     Delta-E=       -0.000150158495 Rises=F Damp=F
 DIIS: error= 2.30D-03 at cycle   3 NSaved=   3.
 NSaved= 3 IEnMin= 3 EnMin= -112.898487266611     IErMin= 3 ErrMin= 2.30D-03
 ErrMax= 2.30D-03  0.00D+00 EMaxC= 1.00D-01 BMatC= 3.94D-05 BMatP= 1.85D-04
 IDIUse=3 WtCom= 9.77D-01 WtEn= 2.30D-02
 Coeff-Com: -0.454D-01 0.304D+00 0.741D+00
 Coeff-En:   0.000D+00 0.187D+00 0.813D+00
 Coeff:     -0.444D-01 0.302D+00 0.743D+00
 Gap=     0.350 Goal=   None    Shift=    0.000
 RMSDP=6.45D-04 MaxDP=4.90D-03 DE=-1.50D-04 OVMax= 0.00D+00

 Cycle   4  Pass 0  IDiag  1:
 E= -112.898536888425     Delta-E=       -0.000049621814 Rises=F Damp=F
 DIIS: error= 2.88D-04 at cycle   4 NSaved=   4.
 NSaved= 4 IEnMin= 4 EnMin= -112.898536888425     IErMin= 4 ErrMin= 2.88D-04
 ErrMax= 2.88D-04  0.00D+00 EMaxC= 1.00D-01 BMatC= 9.73D-07 BMatP= 3.94D-05
 IDIUse=3 WtCom= 9.97D-01 WtEn= 2.88D-03
 Coeff-Com: -0.189D-01-0.177D-01 0.118D+00 0.919D+00
 Coeff-En:   0.000D+00 0.000D+00 0.000D+00 0.100D+01
 Coeff:     -0.188D-01-0.177D-01 0.117D+00 0.919D+00
 Gap=     0.349 Goal=   None    Shift=    0.000
 RMSDP=1.34D-04 MaxDP=6.21D-04 DE=-4.96D-05 OVMax= 0.00D+00

 Cycle   5  Pass 0  IDiag  1:
 E= -112.898538165259     Delta-E=       -0.000001276834 Rises=F Damp=F
 DIIS: error= 3.16D-05 at cycle   5 NSaved=   5.
 NSaved= 5 IEnMin= 5 EnMin= -112.898538165259     IErMin= 5 ErrMin= 3.16D-05
 ErrMax= 3.16D-05  0.00D+00 EMaxC= 1.00D-01 BMatC= 1.77D-08 BMatP= 9.73D-07
 IDIUse=1 WtCom= 1.00D+00 WtEn= 0.00D+00
 Coeff-Com:  0.219D-02-0.157D-01-0.256D-01-0.523D-01 0.109D+01
 Coeff:      0.219D-02-0.157D-01-0.256D-01-0.523D-01 0.109D+01
 Gap=     0.349 Goal=   None    Shift=    0.000
 RMSDP=2.23D-05 MaxDP=8.83D-05 DE=-1.28D-06 OVMax= 0.00D+00

 Cycle   6  Pass 0  IDiag  1:
 E= -112.898538193843     Delta-E=       -0.000000028584 Rises=F Damp=F
 DIIS: error= 5.35D-06 at cycle   6 NSaved=   6.
 NSaved= 6 IEnMin= 6 EnMin= -112.898538193843     IErMin= 6 ErrMin= 5.35D-06
 ErrMax= 5.35D-06  0.00D+00 EMaxC= 1.00D-01 BMatC= 6.60D-10 BMatP= 1.77D-08
 IDIUse=1 WtCom= 1.00D+00 WtEn= 0.00D+00
 Coeff-Com: -0.248D-03 0.327D-02 0.716D-02-0.423D-02-0.263D+00 0.126D+01
 Coeff:     -0.248D-03 0.327D-02 0.716D-02-0.423D-02-0.263D+00 0.126D+01
 Gap=     0.349 Goal=   None    Shift=    0.000
 RMSDP=3.23D-06 MaxDP=1.87D-05 DE=-2.86D-08 OVMax= 0.00D+00

 Initial convergence to 1.0D-05 achieved.  Increase integral accuracy.
 Cycle   7  Pass 1  IDiag  1:
 E= -112.898539585937     Delta-E=       -0.000001392094 Rises=F Damp=F
 DIIS: error= 1.60D-07 at cycle   1 NSaved=   1.
 NSaved= 1 IEnMin= 1 EnMin= -112.898539585937     IErMin= 1 ErrMin= 1.60D-07
 ErrMax= 1.60D-07  0.00D+00 EMaxC= 1.00D-01 BMatC= 4.94D-13 BMatP= 4.94D-13
 IDIUse=1 WtCom= 1.00D+00 WtEn= 0.00D+00
 Coeff-Com:  0.100D+01
 Coeff:      0.100D+01
 Gap=     0.349 Goal=   None    Shift=    0.000
 RMSDP=3.23D-06 MaxDP=1.87D-05 DE=-1.39D-06 OVMax= 0.00D+00

 Cycle   8  Pass 1  IDiag  1:
 E= -112.898539585938     Delta-E=       -0.000000000001 Rises=F Damp=F
 DIIS: error= 6.58D-08 at cycle   2 NSaved=   2.
 NSaved= 2 IEnMin= 2 EnMin= -112.898539585938     IErMin= 2 ErrMin= 6.58D-08
 ErrMax= 6.58D-08  0.00D+00 EMaxC= 1.00D-01 BMatC= 3.19D-14 BMatP= 4.94D-13
 IDIUse=1 WtCom= 1.00D+00 WtEn= 0.00D+00
 Coeff-Com: -0.132D+00 0.113D+01
 Coeff:     -0.132D+00 0.113D+01
 Gap=     0.349 Goal=   None    Shift=    0.000
 RMSDP=4.73D-08 MaxDP=3.14D-07 DE=-1.22D-12 OVMax= 0.00D+00

 Cycle   9  Pass 1  IDiag  1:
 E= -112.898539585938     Delta-E=        0.000000000000 Rises=F Damp=F
 DIIS: error= 6.73D-08 at cycle   3 NSaved=   3.
 NSaved= 3 IEnMin= 2 EnMin= -112.898539585938     IErMin= 2 ErrMin= 6.58D-08
 ErrMax= 6.73D-08  0.00D+00 EMaxC= 1.00D-01 BMatC= 5.66D-14 BMatP= 3.19D-14
 IDIUse=1 WtCom= 1.00D+00 WtEn= 0.00D+00
 Coeff-Com: -0.178D+00 0.728D+00 0.450D+00
 Coeff:     -0.178D+00 0.728D+00 0.450D+00
 Gap=     0.349 Goal=   None    Shift=    0.000
 RMSDP=2.03D-08 MaxDP=9.88D-08 DE= 1.71D-13 OVMax= 0.00D+00

 Cycle  10  Pass 1  IDiag  1:
 E= -112.898539585938     Delta-E=       -0.000000000000 Rises=F Damp=F
 DIIS: error= 2.78D-09 at cycle   4 NSaved=   4.
 NSaved= 4 IEnMin= 2 EnMin= -112.898539585938     IErMin= 4 ErrMin= 2.78D-09
 ErrMax= 2.78D-09  0.00D+00 EMaxC= 1.00D-01 BMatC= 1.38D-16 BMatP= 3.19D-14
 IDIUse=1 WtCom= 1.00D+00 WtEn= 0.00D+00
 Coeff-Com:  0.536D-02-0.463D-01-0.526D-01 0.109D+01
 Coeff:      0.536D-02-0.463D-01-0.526D-01 0.109D+01
 Gap=     0.349 Goal=   None    Shift=    0.000
 RMSDP=2.23D-09 MaxDP=1.10D-08 DE=-1.71D-13 OVMax= 0.00D+00

 SCF Done:  E(RCAM-B3LYP) =  -112.898539586     A.U. after   10 cycles
            NFock= 10  Conv=0.22D-08     -V/T= 2.0151
 KE= 1.112213713662D+02 PE=-3.255902780828D+02 EE= 7.117006558366D+01
 Leave Link  502 at Fri Feb 23 12:42:46 2024, MaxMem= 14763950080 cpu:               3.5 elap:               0.1
 (Enter /apps/gaussian/g16-c01-avx2/g16/l701.exe)
 ... and contract with generalized density number  0.
 Compute integral first derivatives.
 Leave Link  701 at Fri Feb 23 12:42:46 2024, MaxMem= 14763950080 cpu:               1.6 elap:               0.1
 (Enter /apps/gaussian/g16-c01-avx2/g16/l702.exe)
 L702 exits ... SP integral derivatives will be done elsewhere.
 Leave Link  702 at Fri Feb 23 12:42:46 2024, MaxMem= 14763950080 cpu:               0.3 elap:               0.0
 (Enter /apps/gaussian/g16-c01-avx2/g16/l703.exe)
 Integral derivatives from FoFJK, PRISM(SPDF).
 Compute integral first derivatives, UseDBF=F ICtDFT=           0.
 Calling FoFJK, ICntrl=      2127 FMM=F ISym2X=1 I1Cent= 0 IOpClX= 0 NMat=1 NMatS=1 NMatT=0.
 FoFJK:  IHMeth= 1 ICntrl=    2127 DoSepK=T KAlg= 0 I1Cent=           0 FoldK=F
 IRaf=         1 NMat=       1 IRICut=       1 DoRegI=T DoRafI=F ISym2E= 1 IDoP0=0 IntGTp=1.
 FoFCou: FMM=F IPFlag=           0 FMFlag=      100000 FMFlg1=         800
         NFxFlg=           0 DoJE=F BraDBF=F KetDBF=F FulRan=T
         wScrn=  0.000000 ICntrl=      2527 IOpCl=  0 I1Cent=           0 NGrid=           0
         NMat0=    1 NMatS0=      1 NMatT0=    0 NMatD0=    1 NMtDS0=    0 NMtDT0=    0
 Petite list used in FoFCou.
 Leave Link  703 at Fri Feb 23 12:42:46 2024, MaxMem= 14763950080 cpu:               4.0 elap:               0.1
 (Enter /apps/gaussian/g16-c01-avx2/g16/l716.exe)
 Dipole        = 1.01005980D-17-4.96532933D-16-5.50397971D-01
 ***** Axes restored to original set *****
 -------------------------------------------------------------------
 Center     Atomic                   Forces (Hartrees/Bohr)
 Number     Number              X              Y              Z
 -------------------------------------------------------------------
      1        6           0.005407935    0.009370755   -0.000000000
      2        1          -0.003656024    0.001780834    0.000000000
      3        1           0.003371088   -0.002274566    0.000000000
      4        8          -0.005122999   -0.008877023   -0.000000000
 -------------------------------------------------------------------
 Cartesian Forces:  Max     0.009370755 RMS     0.004611392
 Leave Link  716 at Fri Feb 23 12:42:46 2024, MaxMem= 14763950080 cpu:               0.3 elap:               0.0
 (Enter /apps/gaussian/g16-c01-avx2/g16/l103.exe)

 GradGradGradGradGradGradGradGradGradGradGradGradGradGradGradGradGradGrad
 Berny optimization.
 Using GEDIIS/GDIIS optimizer.
 FormGI is forming the generalized inverse of G from B-inverse, IUseBI=4.
 Internal  Forces:  Max     0.010249227 RMS     0.004535078
 Search for a local minimum.
 Step number   2 out of a maximum of   20
 All quantities printed in internal units (Hartrees-Bohrs-Radians)
 RMS Force = .45351D-02 SwitMx=.10000D-02 MixMth= 1
 Mixed Optimization -- RFO/linear search
 Update second derivatives using D2CorX and points    1    2
 DE= -4.60D-03 DEPred=-4.98D-03 R= 9.22D-01
 TightC=F SS=  1.41D+00  RLast= 1.75D-01 DXNew= 5.0454D-01 5.2633D-01
 Trust test= 9.22D-01 RLast= 1.75D-01 DXMaxT set to 5.05D-01
 The second derivative matrix:
                          R1        R2        R3        A1        A2
           R1           0.40074
           R2           0.02844   0.40074
           R3           0.04035   0.04035   0.78938
           A1           0.00761   0.00761  -0.01451   0.15288
           A2          -0.00381  -0.00381   0.00726   0.00356   0.15822
           A3          -0.00381  -0.00381   0.00726   0.00356  -0.00178
           D1           0.00000   0.00000  -0.00000  -0.00000   0.00000
                          A3        D1
           A3           0.15822
           D1           0.00000   0.03565
 ITU=  1  0
 Use linear search instead of GDIIS.
     Eigenvalues ---    0.03565   0.14804   0.16000   0.37230   0.42126
     Eigenvalues ---    0.79858
 RFO step:  Lambda=-2.88908771D-04 EMin= 3.56487693D-02
 Quartic linear search produced a step of -0.01143.
 Iteration  1 RMS(Cart)=  0.01114921 RMS(Int)=  0.00008204
 Iteration  2 RMS(Cart)=  0.00006992 RMS(Int)=  0.00000000
 Iteration  3 RMS(Cart)=  0.00000000 RMS(Int)=  0.00000000
 ITry= 1 IFail=0 DXMaxC= 1.86D-02 DCOld= 1.00D+10 DXMaxT= 5.05D-01 DXLimC= 3.00D+00 Rises=F
 ClnCor:  largest displacement from symmetrization is 3.87D-09 for atom     1.
 Variable       Old X    -DE/DX   Delta X   Delta X   Delta X     New X
                                 (Linear)    (Quad)   (Total)
    R1        2.12298  -0.00327  -0.00115  -0.00473  -0.00588   2.11711
    R2        2.12298  -0.00327  -0.00115  -0.00473  -0.00588   2.11711
    R3        2.36439  -0.01025   0.00016  -0.01317  -0.01301   2.35137
    A1        2.01193  -0.00341   0.00094  -0.02420  -0.02326   1.98867
    A2        2.13563   0.00171  -0.00047   0.01210   0.01163   2.14726
    A3        2.13563   0.00171  -0.00047   0.01210   0.01163   2.14726
    D1        3.14159   0.00000   0.00000   0.00000   0.00000   3.14159
         Item               Value     Threshold  Converged?
 Maximum Force            0.010249     0.000450     NO 
 RMS     Force            0.004535     0.000300     NO 
 Maximum Displacement     0.018584     0.001800     NO 
 RMS     Displacement     0.011175     0.001200     NO 
 Predicted change in Energy=-1.460162D-04
 Lowest energy point so far.  Saving SCF results.
 GradGradGradGradGradGradGradGradGradGradGradGradGradGradGradGradGradGrad

 Leave Link  103 at Fri Feb 23 12:42:46 2024, MaxMem= 14763950080 cpu:               0.2 elap:               0.0
 (Enter /apps/gaussian/g16-c01-avx2/g16/l202.exe)
                          Input orientation:                          
 ---------------------------------------------------------------------
 Center     Atomic      Atomic             Coordinates (Angstroms)
 Number     Number       Type             X           Y           Z
 ---------------------------------------------------------------------
      1          6           0       -0.501600   -0.368400    0.000000
      2          1           0        0.006696   -1.366779    0.000000
      3          1           0       -1.620348   -0.427799   -0.000000
      4          8           0        0.120350    0.709302   -0.000000
 ---------------------------------------------------------------------
                    Distance matrix (angstroms):
                    1          2          3          4
     1  C    0.000000
     2  H    1.120324   0.000000
     3  H    1.120324   1.878552   0.000000
     4  O    1.244293   2.079190   2.079190   0.000000
 Stoichiometry    CH2O
 Framework group  C2V[C2(CO),SGV(H2)]
 Deg. of freedom     3
 Full point group                 C2V     NOp   4
 RotChk:  IX=3 Diff= 4.02D-16
 Largest Abelian subgroup         C2V     NOp   4
 Largest concise Abelian subgroup C2      NOp   2
                         Standard orientation:                         
 ---------------------------------------------------------------------
 Center     Atomic      Atomic             Coordinates (Angstroms)
 Number     Number       Type             X           Y           Z
 ---------------------------------------------------------------------
      1          6           0        0.000000   -0.000000   -0.545816
      2          1           0        0.000000   -0.939276   -1.156460
      3          1           0        0.000000    0.939276   -1.156460
      4          8           0       -0.000000    0.000000    0.698477
 ---------------------------------------------------------------------
 Rotational constants (GHZ):         284.1943942          36.3602348          32.2359248
 Leave Link  202 at Fri Feb 23 12:42:46 2024, MaxMem= 14763950080 cpu:               0.1 elap:               0.0
 (Enter /apps/gaussian/g16-c01-avx2/g16/l301.exe)
 Standard basis: STO-3G (5D, 7F)
 Ernie: Thresh=  0.10000D-02 Tol=  0.10000D-05 Strict=F.
 There are     7 symmetry adapted cartesian basis functions of A1  symmetry.
 There are     0 symmetry adapted cartesian basis functions of A2  symmetry.
 There are     2 symmetry adapted cartesian basis functions of B1  symmetry.
 There are     3 symmetry adapted cartesian basis functions of B2  symmetry.
 There are     7 symmetry adapted basis functions of A1  symmetry.
 There are     0 symmetry adapted basis functions of A2  symmetry.
 There are     2 symmetry adapted basis functions of B1  symmetry.
 There are     3 symmetry adapted basis functions of B2  symmetry.
    12 basis functions,    36 primitive gaussians,    12 cartesian basis functions
     8 alpha electrons        8 beta electrons
       nuclear repulsion energy        30.4355898404 Hartrees.
 IExCor=20419 DFT=T Ex+Corr=CAM-B3LYP ExCW=0 ScaHFX=  1.000000
 ScaDFX=  1.000000  1.000000  1.000000  0.810000 ScalE2=  1.000000  1.000000
 IRadAn=      5 IRanWt=     -1 IRanGd=            0 ICorTp=0 IEmpDi=  4
 HFx  wShort=  0.000000 wLong=  0.330000 cFull=  0.190000 cShort=  0.000000 cLong=  0.460000
 DFx  wShort=  0.000000 wLong=  0.330000 cFull=  0.190000 cShort=  0.000000 cLong=  0.460000
 NAtoms=    4 NActive=    4 NUniq=    3 SFac= 1.78D+00 NAtFMM=   60 NAOKFM=F Big=F
 Integral buffers will be    131072 words long.
 Raffenetti 2 integral format.
 Two-electron integral symmetry is turned on.
 Leave Link  301 at Fri Feb 23 12:42:46 2024, MaxMem= 14763950080 cpu:               0.7 elap:               0.0
 (Enter /apps/gaussian/g16-c01-avx2/g16/l302.exe)
 NPDir=0 NMtPBC=     1 NCelOv=     1 NCel=       1 NClECP=     1 NCelD=      1
         NCelK=      1 NCelE2=     1 NClLst=     1 CellRange=     0.0.
 One-electron integrals computed using PRISM.
 One-electron integral symmetry used in STVInt
 NBasis=    12 RedAO= T EigKep=  2.57D-01  NBF=     7     0     2     3
 NBsUse=    12 1.00D-06 EigRej= -1.00D+00 NBFU=     7     0     2     3
 Precomputing XC quadrature grid using
 IXCGrd= 4 IRadAn=           5 IRanWt=          -1 IRanGd=           0 AccXCQ= 0.00D+00.
 Generated NRdTot=       0 NPtTot=           0 NUsed=           0 NTot=          32
 NSgBfM=    12    12    12    12    12 MxSgAt=     4 MxSgA2=     4.
 Leave Link  302 at Fri Feb 23 12:42:47 2024, MaxMem= 14763950080 cpu:               2.8 elap:               0.1
 (Enter /apps/gaussian/g16-c01-avx2/g16/l303.exe)
 DipDrv:  MaxL=1.
 Leave Link  303 at Fri Feb 23 12:42:47 2024, MaxMem= 14763950080 cpu:               0.3 elap:               0.0
 (Enter /apps/gaussian/g16-c01-avx2/g16/l401.exe)
 Initial guess from the checkpoint file:  "CAM-B3LYP_job1.chk"
 B after Tr=    -0.000000    0.000000   -0.000000
         Rot=    1.000000    0.000000   -0.000000   -0.000000 Ang=   0.00 deg.
 Guess basis will be translated and rotated to current coordinates.
 JPrj=2 DoOrth=T DoCkMO=T.
 Initial guess orbital symmetries:
       Occupied  (A1) (A1) (A1) (A1) (B2) (A1) (B1) (B2)
       Virtual   (B1) (A1) (B2) (A1)
 The electronic state of the initial guess is 1-A1.
 Leave Link  401 at Fri Feb 23 12:42:47 2024, MaxMem= 14763950080 cpu:               1.3 elap:               0.1
 (Enter /apps/gaussian/g16-c01-avx2/g16/l502.exe)
 Keep R1 ints in memory in symmetry-blocked form, NReq=27609082.
 FoFCou: FMM=F IPFlag=           0 FMFlag=           0 FMFlg1=           0
         NFxFlg=           0 DoJE=F BraDBF=F KetDBF=F FulRan=T
         wScrn=  0.000000 ICntrl=       600 IOpCl=  0 I1Cent=           0 NGrid=           0
         NMat0=    1 NMatS0=     78 NMatT0=    0 NMatD0=    1 NMtDS0=    0 NMtDT0=    0
 Petite list used in FoFCou.
 Closed shell SCF:
 Using DIIS extrapolation, IDIIS=  1040.
 NGot= 14763950080 LenX= 14763946320 LenY= 14763945438
 Requested convergence on RMS density matrix=1.00D-08 within 128 cycles.
 Requested convergence on MAX density matrix=1.00D-06.
 Requested convergence on             energy=1.00D-06.
 No special actions if energy rises.

 Cycle   1  Pass 1  IDiag  1:
 E= -112.898668464507    
 DIIS: error= 8.76D-04 at cycle   1 NSaved=   1.
 NSaved= 1 IEnMin= 1 EnMin= -112.898668464507     IErMin= 1 ErrMin= 8.76D-04
 ErrMax= 8.76D-04  0.00D+00 EMaxC= 1.00D-01 BMatC= 1.47D-05 BMatP= 1.47D-05
 IDIUse=3 WtCom= 9.91D-01 WtEn= 8.76D-03
 Coeff-Com:  0.100D+01
 Coeff-En:   0.100D+01
 Coeff:      0.100D+01
 Gap=     0.352 Goal=   None    Shift=    0.000
 RMSDP=5.93D-04 MaxDP=2.20D-03              OVMax= 0.00D+00

 Cycle   2  Pass 1  IDiag  1:
 E= -112.898689003726     Delta-E=       -0.000020539219 Rises=F Damp=F
 DIIS: error= 2.08D-04 at cycle   2 NSaved=   2.
 NSaved= 2 IEnMin= 2 EnMin= -112.898689003726     IErMin= 2 ErrMin= 2.08D-04
 ErrMax= 2.08D-04  0.00D+00 EMaxC= 1.00D-01 BMatC= 4.91D-07 BMatP= 1.47D-05
 IDIUse=3 WtCom= 9.98D-01 WtEn= 2.08D-03
 Coeff-Com: -0.701D-01 0.107D+01
 Coeff-En:   0.000D+00 0.100D+01
 Coeff:     -0.700D-01 0.107D+01
 Gap=     0.351 Goal=   None    Shift=    0.000
 RMSDP=1.49D-04 MaxDP=6.26D-04 DE=-2.05D-05 OVMax= 0.00D+00

 Cycle   3  Pass 1  IDiag  1:
 E= -112.898689378967     Delta-E=       -0.000000375241 Rises=F Damp=F
 DIIS: error= 2.36D-04 at cycle   3 NSaved=   3.
 NSaved= 3 IEnMin= 3 EnMin= -112.898689378967     IErMin= 2 ErrMin= 2.08D-04
 ErrMax= 2.36D-04  0.00D+00 EMaxC= 1.00D-01 BMatC= 5.12D-07 BMatP= 4.91D-07
 IDIUse=3 WtCom= 9.98D-01 WtEn= 2.36D-03
 Coeff-Com: -0.623D-01 0.577D+00 0.485D+00
 Coeff-En:   0.000D+00 0.237D+00 0.763D+00
 Coeff:     -0.621D-01 0.577D+00 0.486D+00
 Gap=     0.352 Goal=   None    Shift=    0.000
 RMSDP=7.01D-05 MaxDP=4.69D-04 DE=-3.75D-07 OVMax= 0.00D+00

 Cycle   4  Pass 1  IDiag  1:
 E= -112.898689934785     Delta-E=       -0.000000555817 Rises=F Damp=F
 DIIS: error= 3.60D-05 at cycle   4 NSaved=   4.
 NSaved= 4 IEnMin= 4 EnMin= -112.898689934785     IErMin= 4 ErrMin= 3.60D-05
 ErrMax= 3.60D-05  0.00D+00 EMaxC= 1.00D-01 BMatC= 1.70D-08 BMatP= 4.91D-07
 IDIUse=1 WtCom= 1.00D+00 WtEn= 0.00D+00
 Coeff-Com:  0.642D-04-0.693D-01 0.119D+00 0.950D+00
 Coeff:      0.642D-04-0.693D-01 0.119D+00 0.950D+00
 Gap=     0.352 Goal=   None    Shift=    0.000
 RMSDP=1.73D-05 MaxDP=8.44D-05 DE=-5.56D-07 OVMax= 0.00D+00

 Cycle   5  Pass 1  IDiag  1:
 E= -112.898689956992     Delta-E=       -0.000000022208 Rises=F Damp=F
 DIIS: error= 3.13D-06 at cycle   5 NSaved=   5.
 NSaved= 5 IEnMin= 5 EnMin= -112.898689956992     IErMin= 5 ErrMin= 3.13D-06
 ErrMax= 3.13D-06  0.00D+00 EMaxC= 1.00D-01 BMatC= 9.36D-11 BMatP= 1.70D-08
 IDIUse=1 WtCom= 1.00D+00 WtEn= 0.00D+00
 Coeff-Com:  0.136D-02-0.224D-01 0.618D-02 0.114D+00 0.900D+00
 Coeff:      0.136D-02-0.224D-01 0.618D-02 0.114D+00 0.900D+00
 Gap=     0.352 Goal=   None    Shift=    0.000
 RMSDP=1.60D-06 MaxDP=7.18D-06 DE=-2.22D-08 OVMax= 0.00D+00

 Cycle   6  Pass 1  IDiag  1:
 E= -112.898689957174     Delta-E=       -0.000000000182 Rises=F Damp=F
 DIIS: error= 7.16D-07 at cycle   6 NSaved=   6.
 NSaved= 6 IEnMin= 6 EnMin= -112.898689957174     IErMin= 6 ErrMin= 7.16D-07
 ErrMax= 7.16D-07  0.00D+00 EMaxC= 1.00D-01 BMatC= 7.36D-12 BMatP= 9.36D-11
 IDIUse=1 WtCom= 1.00D+00 WtEn= 0.00D+00
 Coeff-Com: -0.144D-03 0.396D-02-0.580D-03-0.397D-01-0.862D-01 0.112D+01
 Coeff:     -0.144D-03 0.396D-02-0.580D-03-0.397D-01-0.862D-01 0.112D+01
 Gap=     0.352 Goal=   None    Shift=    0.000
 RMSDP=3.88D-07 MaxDP=1.70D-06 DE=-1.82D-10 OVMax= 0.00D+00

 Cycle   7  Pass 1  IDiag  1:
 E= -112.898689957184     Delta-E=       -0.000000000010 Rises=F Damp=F
 DIIS: error= 8.88D-08 at cycle   7 NSaved=   7.
 NSaved= 7 IEnMin= 7 EnMin= -112.898689957184     IErMin= 7 ErrMin= 8.88D-08
 ErrMax= 8.88D-08  0.00D+00 EMaxC= 1.00D-01 BMatC= 1.46D-13 BMatP= 7.36D-12
 IDIUse=1 WtCom= 1.00D+00 WtEn= 0.00D+00
 Coeff-Com:  0.229D-04-0.788D-03 0.544D-03 0.828D-02 0.129D-01-0.299D+00
 Coeff-Com:  0.128D+01
 Coeff:      0.229D-04-0.788D-03 0.544D-03 0.828D-02 0.129D-01-0.299D+00
 Coeff:      0.128D+01
 Gap=     0.352 Goal=   None    Shift=    0.000
 RMSDP=5.52D-08 MaxDP=2.91D-07 DE=-9.66D-12 OVMax= 0.00D+00

 Cycle   8  Pass 1  IDiag  1:
 E= -112.898689957184     Delta-E=       -0.000000000000 Rises=F Damp=F
 DIIS: error= 5.60D-09 at cycle   8 NSaved=   8.
 NSaved= 8 IEnMin= 8 EnMin= -112.898689957184     IErMin= 8 ErrMin= 5.60D-09
 ErrMax= 5.60D-09  0.00D+00 EMaxC= 1.00D-01 BMatC= 4.78D-16 BMatP= 1.46D-13
 IDIUse=1 WtCom= 1.00D+00 WtEn= 0.00D+00
 Coeff-Com: -0.469D-05 0.155D-03-0.960D-04-0.167D-02-0.223D-02 0.596D-01
 Coeff-Com: -0.288D+00 0.123D+01
 Coeff:     -0.469D-05 0.155D-03-0.960D-04-0.167D-02-0.223D-02 0.596D-01
 Coeff:     -0.288D+00 0.123D+01
 Gap=     0.352 Goal=   None    Shift=    0.000
 RMSDP=3.29D-09 MaxDP=1.84D-08 DE=-2.27D-13 OVMax= 0.00D+00

 SCF Done:  E(RCAM-B3LYP) =  -112.898689957     A.U. after    8 cycles
            NFock=  8  Conv=0.33D-08     -V/T= 2.0150
 KE= 1.112295486468D+02 PE=-3.258315127227D+02 EE= 7.126768427829D+01
 Leave Link  502 at Fri Feb 23 12:42:47 2024, MaxMem= 14763950080 cpu:               4.3 elap:               0.1
 (Enter /apps/gaussian/g16-c01-avx2/g16/l701.exe)
 ... and contract with generalized density number  0.
 Compute integral first derivatives.
 Leave Link  701 at Fri Feb 23 12:42:47 2024, MaxMem= 14763950080 cpu:               1.8 elap:               0.1
 (Enter /apps/gaussian/g16-c01-avx2/g16/l702.exe)
 L702 exits ... SP integral derivatives will be done elsewhere.
 Leave Link  702 at Fri Feb 23 12:42:47 2024, MaxMem= 14763950080 cpu:               0.3 elap:               0.0
 (Enter /apps/gaussian/g16-c01-avx2/g16/l703.exe)
 Integral derivatives from FoFJK, PRISM(SPDF).
 Compute integral first derivatives, UseDBF=F ICtDFT=           0.
 Calling FoFJK, ICntrl=      2127 FMM=F ISym2X=1 I1Cent= 0 IOpClX= 0 NMat=1 NMatS=1 NMatT=0.
 FoFJK:  IHMeth= 1 ICntrl=    2127 DoSepK=T KAlg= 0 I1Cent=           0 FoldK=F
 IRaf=         1 NMat=       1 IRICut=       1 DoRegI=T DoRafI=F ISym2E= 1 IDoP0=0 IntGTp=1.
 FoFCou: FMM=F IPFlag=           0 FMFlag=      100000 FMFlg1=         800
         NFxFlg=           0 DoJE=F BraDBF=F KetDBF=F FulRan=T
         wScrn=  0.000000 ICntrl=      2527 IOpCl=  0 I1Cent=           0 NGrid=           0
         NMat0=    1 NMatS0=      1 NMatT0=    0 NMatD0=    1 NMtDS0=    0 NMtDT0=    0
 Petite list used in FoFCou.
 Leave Link  703 at Fri Feb 23 12:42:47 2024, MaxMem= 14763950080 cpu:               3.4 elap:               0.1
 (Enter /apps/gaussian/g16-c01-avx2/g16/l716.exe)
 Dipole        = 9.80919565D-18-4.66163551D-16-5.47568243D-01
 ***** Axes restored to original set *****
 -------------------------------------------------------------------
 Center     Atomic                   Forces (Hartrees/Bohr)
 Number     Number              X              Y              Z
 -------------------------------------------------------------------
      1        6          -0.000412913   -0.000715486   -0.000000000
      2        1          -0.000409445    0.000364842    0.000000000
      3        1           0.000520748   -0.000171980    0.000000000
      4        8           0.000301610    0.000522624   -0.000000000
 -------------------------------------------------------------------
 Cartesian Forces:  Max     0.000715486 RMS     0.000370589
 Leave Link  716 at Fri Feb 23 12:42:47 2024, MaxMem= 14763950080 cpu:               0.3 elap:               0.0
 (Enter /apps/gaussian/g16-c01-avx2/g16/l103.exe)

 GradGradGradGradGradGradGradGradGradGradGradGradGradGradGradGradGradGrad
 Berny optimization.
 Using GEDIIS/GDIIS optimizer.
 FormGI is forming the generalized inverse of G from B-inverse, IUseBI=4.
 Internal  Forces:  Max     0.000603411 RMS     0.000378886
 Search for a local minimum.
 Step number   3 out of a maximum of   20
 All quantities printed in internal units (Hartrees-Bohrs-Radians)
 RMS Force = .37889D-03 SwitMx=.10000D-02 MixMth= 2
 Mixed Optimization -- En-DIIS/RFO-DIIS
 Update second derivatives using D2CorX and points    1    2    3
 DE= -1.50D-04 DEPred=-1.46D-04 R= 1.03D+00
 TightC=F SS=  1.41D+00  RLast= 3.24D-02 DXNew= 8.4853D-01 9.7197D-02
 Trust test= 1.03D+00 RLast= 3.24D-02 DXMaxT set to 5.05D-01
 The second derivative matrix:
                          R1        R2        R3        A1        A2
           R1           0.39231
           R2           0.02001   0.39231
           R3           0.02564   0.02564   0.84475
           A1           0.00015   0.00015  -0.01264   0.14780
           A2          -0.00007  -0.00007   0.00632   0.00610   0.15695
           A3          -0.00007  -0.00007   0.00632   0.00610  -0.00305
           D1           0.00000   0.00000  -0.00000  -0.00000   0.00000
                          A3        D1
           A3           0.15695
           D1           0.00000   0.03565
 ITU=  1  1  0
 Use linear search instead of GDIIS.
     Eigenvalues ---    0.03565   0.14136   0.16000   0.37230   0.40931
     Eigenvalues ---    0.84811
 RFO step:  Lambda=-2.33637171D-06 EMin= 3.56487693D-02
 Quartic linear search produced a step of  0.02762.
 Iteration  1 RMS(Cart)=  0.00128221 RMS(Int)=  0.00000073
 Iteration  2 RMS(Cart)=  0.00000056 RMS(Int)=  0.00000000
 ITry= 1 IFail=0 DXMaxC= 2.22D-03 DCOld= 1.00D+10 DXMaxT= 5.05D-01 DXLimC= 3.00D+00 Rises=F
 ClnCor:  largest displacement from symmetrization is 1.10D-14 for atom     1.
 Variable       Old X    -DE/DX   Delta X   Delta X   Delta X     New X
                                 (Linear)    (Quad)   (Total)
    R1        2.11711  -0.00051  -0.00016  -0.00112  -0.00128   2.11582
    R2        2.11711  -0.00051  -0.00016  -0.00112  -0.00128   2.11582
    R3        2.35137   0.00060  -0.00036   0.00111   0.00075   2.35213
    A1        1.98867  -0.00028  -0.00064  -0.00125  -0.00189   1.98678
    A2        2.14726   0.00014   0.00032   0.00062   0.00095   2.14820
    A3        2.14726   0.00014   0.00032   0.00062   0.00095   2.14820
    D1        3.14159   0.00000   0.00000   0.00000   0.00000   3.14159
         Item               Value     Threshold  Converged?
 Maximum Force            0.000603     0.000450     NO 
 RMS     Force            0.000379     0.000300     NO 
 Maximum Displacement     0.002215     0.001800     NO 
 RMS     Displacement     0.001282     0.001200     NO 
 Predicted change in Energy=-1.286647D-06
 Lowest energy point so far.  Saving SCF results.
 GradGradGradGradGradGradGradGradGradGradGradGradGradGradGradGradGradGrad

 Leave Link  103 at Fri Feb 23 12:42:47 2024, MaxMem= 14763950080 cpu:               0.3 elap:               0.0
 (Enter /apps/gaussian/g16-c01-avx2/g16/l202.exe)
                          Input orientation:                          
 ---------------------------------------------------------------------
 Center     Atomic      Atomic             Coordinates (Angstroms)
 Number     Number       Type             X           Y           Z
 ---------------------------------------------------------------------
      1          6           0       -0.501521   -0.368262    0.000000
      2          1           0        0.005524   -1.366516    0.000000
      3          1           0       -1.619534   -0.428682   -0.000000
      4          8           0        0.120629    0.709785   -0.000000
 ---------------------------------------------------------------------
                    Distance matrix (angstroms):
                    1          2          3          4
     1  C    0.000000
     2  H    1.119645   0.000000
     3  H    1.119645   1.876259   0.000000
     4  O    1.244691   2.079489   2.079489   0.000000
 Stoichiometry    CH2O
 Framework group  C2V[C2(CO),SGV(H2)]
 Deg. of freedom     3
 Full point group                 C2V     NOp   4
 RotChk:  IX=3 Diff= 2.26D-16
 Largest Abelian subgroup         C2V     NOp   4
 Largest concise Abelian subgroup C2      NOp   2
                         Standard orientation:                         
 ---------------------------------------------------------------------
 Center     Atomic      Atomic             Coordinates (Angstroms)
 Number     Number       Type             X           Y           Z
 ---------------------------------------------------------------------
      1          6           0       -0.000000   -0.000000   -0.545951
      2          1           0       -0.000000   -0.938129   -1.157112
      3          1           0        0.000000    0.938129   -1.157112
      4          8           0        0.000000    0.000000    0.698741
 ---------------------------------------------------------------------
 Rotational constants (GHZ):         284.8895720          36.3328032          32.2232745
 Leave Link  202 at Fri Feb 23 12:42:47 2024, MaxMem= 14763950080 cpu:               0.1 elap:               0.0
 (Enter /apps/gaussian/g16-c01-avx2/g16/l301.exe)
 Standard basis: STO-3G (5D, 7F)
 Ernie: Thresh=  0.10000D-02 Tol=  0.10000D-05 Strict=F.
 There are     7 symmetry adapted cartesian basis functions of A1  symmetry.
 There are     0 symmetry adapted cartesian basis functions of A2  symmetry.
 There are     2 symmetry adapted cartesian basis functions of B1  symmetry.
 There are     3 symmetry adapted cartesian basis functions of B2  symmetry.
 There are     7 symmetry adapted basis functions of A1  symmetry.
 There are     0 symmetry adapted basis functions of A2  symmetry.
 There are     2 symmetry adapted basis functions of B1  symmetry.
 There are     3 symmetry adapted basis functions of B2  symmetry.
    12 basis functions,    36 primitive gaussians,    12 cartesian basis functions
     8 alpha electrons        8 beta electrons
       nuclear repulsion energy        30.4322580411 Hartrees.
 IExCor=20419 DFT=T Ex+Corr=CAM-B3LYP ExCW=0 ScaHFX=  1.000000
 ScaDFX=  1.000000  1.000000  1.000000  0.810000 ScalE2=  1.000000  1.000000
 IRadAn=      5 IRanWt=     -1 IRanGd=            0 ICorTp=0 IEmpDi=  4
 HFx  wShort=  0.000000 wLong=  0.330000 cFull=  0.190000 cShort=  0.000000 cLong=  0.460000
 DFx  wShort=  0.000000 wLong=  0.330000 cFull=  0.190000 cShort=  0.000000 cLong=  0.460000
 NAtoms=    4 NActive=    4 NUniq=    3 SFac= 1.78D+00 NAtFMM=   60 NAOKFM=F Big=F
 Integral buffers will be    131072 words long.
 Raffenetti 2 integral format.
 Two-electron integral symmetry is turned on.
 Leave Link  301 at Fri Feb 23 12:42:47 2024, MaxMem= 14763950080 cpu:               0.7 elap:               0.0
 (Enter /apps/gaussian/g16-c01-avx2/g16/l302.exe)
 NPDir=0 NMtPBC=     1 NCelOv=     1 NCel=       1 NClECP=     1 NCelD=      1
         NCelK=      1 NCelE2=     1 NClLst=     1 CellRange=     0.0.
 One-electron integrals computed using PRISM.
 One-electron integral symmetry used in STVInt
 NBasis=    12 RedAO= T EigKep=  2.57D-01  NBF=     7     0     2     3
 NBsUse=    12 1.00D-06 EigRej= -1.00D+00 NBFU=     7     0     2     3
 Precomputing XC quadrature grid using
 IXCGrd= 4 IRadAn=           5 IRanWt=          -1 IRanGd=           0 AccXCQ= 0.00D+00.
 Generated NRdTot=       0 NPtTot=           0 NUsed=           0 NTot=          32
 NSgBfM=    12    12    12    12    12 MxSgAt=     4 MxSgA2=     4.
 Leave Link  302 at Fri Feb 23 12:42:47 2024, MaxMem= 14763950080 cpu:               1.8 elap:               0.1
 (Enter /apps/gaussian/g16-c01-avx2/g16/l303.exe)
 DipDrv:  MaxL=1.
 Leave Link  303 at Fri Feb 23 12:42:47 2024, MaxMem= 14763950080 cpu:               0.4 elap:               0.0
 (Enter /apps/gaussian/g16-c01-avx2/g16/l401.exe)
 Initial guess from the checkpoint file:  "CAM-B3LYP_job1.chk"
 B after Tr=    -0.000000   -0.000000   -0.000000
         Rot=    1.000000    0.000000   -0.000000    0.000000 Ang=   0.00 deg.
 Guess basis will be translated and rotated to current coordinates.
 JPrj=2 DoOrth=T DoCkMO=T.
 Initial guess orbital symmetries:
       Occupied  (A1) (A1) (A1) (A1) (B2) (A1) (B1) (B2)
       Virtual   (B1) (A1) (B2) (A1)
 The electronic state of the initial guess is 1-A1.
 Leave Link  401 at Fri Feb 23 12:42:47 2024, MaxMem= 14763950080 cpu:               1.2 elap:               0.0
 (Enter /apps/gaussian/g16-c01-avx2/g16/l502.exe)
 Keep R1 ints in memory in symmetry-blocked form, NReq=27609082.
 FoFCou: FMM=F IPFlag=           0 FMFlag=           0 FMFlg1=           0
         NFxFlg=           0 DoJE=F BraDBF=F KetDBF=F FulRan=T
         wScrn=  0.000000 ICntrl=       600 IOpCl=  0 I1Cent=           0 NGrid=           0
         NMat0=    1 NMatS0=     78 NMatT0=    0 NMatD0=    1 NMtDS0=    0 NMtDT0=    0
 Petite list used in FoFCou.
 Closed shell SCF:
 Using DIIS extrapolation, IDIIS=  1040.
 NGot= 14763950080 LenX= 14763946320 LenY= 14763945438
 Requested convergence on RMS density matrix=1.00D-08 within 128 cycles.
 Requested convergence on MAX density matrix=1.00D-06.
 Requested convergence on             energy=1.00D-06.
 No special actions if energy rises.

 Cycle   1  Pass 1  IDiag  1:
 E= -112.898691088370    
 DIIS: error= 7.30D-05 at cycle   1 NSaved=   1.
 NSaved= 1 IEnMin= 1 EnMin= -112.898691088370     IErMin= 1 ErrMin= 7.30D-05
 ErrMax= 7.30D-05  0.00D+00 EMaxC= 1.00D-01 BMatC= 8.28D-08 BMatP= 8.28D-08
 IDIUse=1 WtCom= 1.00D+00 WtEn= 0.00D+00
 Coeff-Com:  0.100D+01
 Coeff:      0.100D+01
 Gap=     0.351 Goal=   None    Shift=    0.000
 RMSDP=4.20D-05 MaxDP=2.01D-04              OVMax= 0.00D+00

 Cycle   2  Pass 1  IDiag  1:
 E= -112.898691134788     Delta-E=       -0.000000046418 Rises=F Damp=F
 DIIS: error= 5.86D-05 at cycle   2 NSaved=   2.
 NSaved= 2 IEnMin= 2 EnMin= -112.898691134788     IErMin= 2 ErrMin= 5.86D-05
 ErrMax= 5.86D-05  0.00D+00 EMaxC= 1.00D-01 BMatC= 3.13D-08 BMatP= 8.28D-08
 IDIUse=1 WtCom= 1.00D+00 WtEn= 0.00D+00
 Coeff-Com:  0.326D+00 0.674D+00
 Coeff:      0.326D+00 0.674D+00
 Gap=     0.351 Goal=   None    Shift=    0.000
 RMSDP=2.52D-05 MaxDP=1.66D-04 DE=-4.64D-08 OVMax= 0.00D+00

 Cycle   3  Pass 1  IDiag  1:
 E= -112.898691155727     Delta-E=       -0.000000020939 Rises=F Damp=F
 DIIS: error= 3.80D-05 at cycle   3 NSaved=   3.
 NSaved= 3 IEnMin= 3 EnMin= -112.898691155727     IErMin= 3 ErrMin= 3.80D-05
 ErrMax= 3.80D-05  0.00D+00 EMaxC= 1.00D-01 BMatC= 1.52D-08 BMatP= 3.13D-08
 IDIUse=1 WtCom= 1.00D+00 WtEn= 0.00D+00
 Coeff-Com: -0.532D-01 0.409D+00 0.644D+00
 Coeff:     -0.532D-01 0.409D+00 0.644D+00
 Gap=     0.351 Goal=   None    Shift=    0.000
 RMSDP=1.06D-05 MaxDP=6.12D-05 DE=-2.09D-08 OVMax= 0.00D+00

 Cycle   4  Pass 1  IDiag  1:
 E= -112.898691172224     Delta-E=       -0.000000016497 Rises=F Damp=F
 DIIS: error= 1.11D-06 at cycle   4 NSaved=   4.
 NSaved= 4 IEnMin= 4 EnMin= -112.898691172224     IErMin= 4 ErrMin= 1.11D-06
 ErrMax= 1.11D-06  0.00D+00 EMaxC= 1.00D-01 BMatC= 2.44D-11 BMatP= 1.52D-08
 IDIUse=1 WtCom= 1.00D+00 WtEn= 0.00D+00
 Coeff-Com: -0.389D-02-0.322D-01-0.653D-01 0.110D+01
 Coeff:     -0.389D-02-0.322D-01-0.653D-01 0.110D+01
 Gap=     0.351 Goal=   None    Shift=    0.000
 RMSDP=1.13D-06 MaxDP=4.53D-06 DE=-1.65D-08 OVMax= 0.00D+00

 Cycle   5  Pass 1  IDiag  1:
 E= -112.898691172274     Delta-E=       -0.000000000050 Rises=F Damp=F
 DIIS: error= 3.97D-07 at cycle   5 NSaved=   5.
 NSaved= 5 IEnMin= 5 EnMin= -112.898691172274     IErMin= 5 ErrMin= 3.97D-07
 ErrMax= 3.97D-07  0.00D+00 EMaxC= 1.00D-01 BMatC= 2.25D-12 BMatP= 2.44D-11
 IDIUse=1 WtCom= 1.00D+00 WtEn= 0.00D+00
 Coeff-Com:  0.826D-03-0.156D-01-0.353D-01 0.160D+00 0.890D+00
 Coeff:      0.826D-03-0.156D-01-0.353D-01 0.160D+00 0.890D+00
 Gap=     0.351 Goal=   None    Shift=    0.000
 RMSDP=1.78D-07 MaxDP=9.02D-07 DE=-5.01D-11 OVMax= 0.00D+00

 Cycle   6  Pass 1  IDiag  1:
 E= -112.898691172277     Delta-E=       -0.000000000003 Rises=F Damp=F
 DIIS: error= 3.51D-08 at cycle   6 NSaved=   6.
 NSaved= 6 IEnMin= 6 EnMin= -112.898691172277     IErMin= 6 ErrMin= 3.51D-08
 ErrMax= 3.51D-08  0.00D+00 EMaxC= 1.00D-01 BMatC= 2.71D-14 BMatP= 2.25D-12
 IDIUse=1 WtCom= 1.00D+00 WtEn= 0.00D+00
 Coeff-Com: -0.184D-03 0.467D-02 0.858D-02-0.482D-01-0.229D+00 0.126D+01
 Coeff:     -0.184D-03 0.467D-02 0.858D-02-0.482D-01-0.229D+00 0.126D+01
 Gap=     0.351 Goal=   None    Shift=    0.000
 RMSDP=2.21D-08 MaxDP=1.12D-07 DE=-2.76D-12 OVMax= 0.00D+00

 Cycle   7  Pass 1  IDiag  1:
 E= -112.898691172277     Delta-E=       -0.000000000000 Rises=F Damp=F
 DIIS: error= 2.60D-09 at cycle   7 NSaved=   7.
 NSaved= 7 IEnMin= 7 EnMin= -112.898691172277     IErMin= 7 ErrMin= 2.60D-09
 ErrMax= 2.60D-09  0.00D+00 EMaxC= 1.00D-01 BMatC= 8.92D-17 BMatP= 2.71D-14
 IDIUse=1 WtCom= 1.00D+00 WtEn= 0.00D+00
 Coeff-Com:  0.300D-04-0.842D-03-0.156D-02 0.882D-02 0.421D-01-0.284D+00
 Coeff-Com:  0.124D+01
 Coeff:      0.300D-04-0.842D-03-0.156D-02 0.882D-02 0.421D-01-0.284D+00
 Coeff:      0.124D+01
 Gap=     0.351 Goal=   None    Shift=    0.000
 RMSDP=2.06D-09 MaxDP=8.10D-09 DE=-5.68D-14 OVMax= 0.00D+00

 SCF Done:  E(RCAM-B3LYP) =  -112.898691172     A.U. after    7 cycles
            NFock=  7  Conv=0.21D-08     -V/T= 2.0150
 KE= 1.112297011046D+02 PE=-3.258250154961D+02 EE= 7.126436517816D+01
 Leave Link  502 at Fri Feb 23 12:42:48 2024, MaxMem= 14763950080 cpu:               3.7 elap:               0.1
 (Enter /apps/gaussian/g16-c01-avx2/g16/l701.exe)
 ... and contract with generalized density number  0.
 Compute integral first derivatives.
 Leave Link  701 at Fri Feb 23 12:42:48 2024, MaxMem= 14763950080 cpu:               1.9 elap:               0.1
 (Enter /apps/gaussian/g16-c01-avx2/g16/l702.exe)
 L702 exits ... SP integral derivatives will be done elsewhere.
 Leave Link  702 at Fri Feb 23 12:42:48 2024, MaxMem= 14763950080 cpu:               0.3 elap:               0.0
 (Enter /apps/gaussian/g16-c01-avx2/g16/l703.exe)
 Integral derivatives from FoFJK, PRISM(SPDF).
 Compute integral first derivatives, UseDBF=F ICtDFT=           0.
 Calling FoFJK, ICntrl=      2127 FMM=F ISym2X=1 I1Cent= 0 IOpClX= 0 NMat=1 NMatS=1 NMatT=0.
 FoFJK:  IHMeth= 1 ICntrl=    2127 DoSepK=T KAlg= 0 I1Cent=           0 FoldK=F
 IRaf=         1 NMat=       1 IRICut=       1 DoRegI=T DoRafI=F ISym2E= 1 IDoP0=0 IntGTp=1.
 FoFCou: FMM=F IPFlag=           0 FMFlag=      100000 FMFlg1=         800
         NFxFlg=           0 DoJE=F BraDBF=F KetDBF=F FulRan=T
         wScrn=  0.000000 ICntrl=      2527 IOpCl=  0 I1Cent=           0 NGrid=           0
         NMat0=    1 NMatS0=      1 NMatT0=    0 NMatD0=    1 NMtDS0=    0 NMtDT0=    0
 Petite list used in FoFCou.
 Leave Link  703 at Fri Feb 23 12:42:48 2024, MaxMem= 14763950080 cpu:               3.5 elap:               0.1
 (Enter /apps/gaussian/g16-c01-avx2/g16/l716.exe)
 Dipole        = 9.81403439D-18-7.88177690D-16-5.47840290D-01
 ***** Axes restored to original set *****
 -------------------------------------------------------------------
 Center     Atomic                   Forces (Hartrees/Bohr)
 Number     Number              X              Y              Z
 -------------------------------------------------------------------
      1        6           0.000005726    0.000009923   -0.000000000
      2        1           0.000015491    0.000048160    0.000000000
      3        1           0.000033948    0.000037508    0.000000000
      4        8          -0.000055166   -0.000095590   -0.000000000
 -------------------------------------------------------------------
 Cartesian Forces:  Max     0.000095590 RMS     0.000038112
 Leave Link  716 at Fri Feb 23 12:42:48 2024, MaxMem= 14763950080 cpu:               0.3 elap:               0.0
 (Enter /apps/gaussian/g16-c01-avx2/g16/l103.exe)

 GradGradGradGradGradGradGradGradGradGradGradGradGradGradGradGradGradGrad
 Berny optimization.
 Using GEDIIS/GDIIS optimizer.
 FormGI is forming the generalized inverse of G from B-inverse, IUseBI=4.
 Internal  Forces:  Max     0.000110366 RMS     0.000051476
 Search for a local minimum.
 Step number   4 out of a maximum of   20
 All quantities printed in internal units (Hartrees-Bohrs-Radians)
 RMS Force = .51476D-04 SwitMx=.10000D-02 MixMth= 2
 Mixed Optimization -- En-DIIS/RFO-DIIS
 Swapping is turned off.
 Update second derivatives using D2CorX and points    1    2    3    4
 DE= -1.22D-06 DEPred=-1.29D-06 R= 9.44D-01
 TightC=F SS=  1.41D+00  RLast= 3.04D-03 DXNew= 8.4853D-01 9.1109D-03
 Trust test= 9.44D-01 RLast= 3.04D-03 DXMaxT set to 5.05D-01
 The second derivative matrix:
                          R1        R2        R3        A1        A2
           R1           0.37457
           R2           0.00227   0.37457
           R3           0.01938   0.01938   0.88452
           A1           0.00217   0.00217  -0.03466   0.15906
           A2          -0.00109  -0.00109   0.01733   0.00047   0.15976
           A3          -0.00109  -0.00109   0.01733   0.00047  -0.00024
           D1          -0.00000  -0.00000  -0.00000  -0.00000   0.00000
                          A3        D1
           A3           0.15976
           D1           0.00000   0.03565
 ITU=  1  1  1  0
     Eigenvalues ---    0.03565   0.15598   0.16000   0.37230   0.37554
     Eigenvalues ---    0.88844
 En-DIIS/RFO-DIIS/Sim-DIIS IScMMF=       -3 using points:     4    3
 RFO step:  Lambda=-3.82910598D-08.
 NNeg= 0 NGDIIS= 2 SimSw=  2.50D-01 Rises=F DC= -1.22D-06 SmlDif=  1.00D-05
 NRisDI= 0 DoIntr=F SqrtH=F CThrHd= 10.0 CDAdj=  3.0
 RMS Error=  0.1511592149D-03 NUsed= 2 OKEnD=F EnDIS=F
 InvSVX:  RCond= 1.04D-05 Info=           0 Equed=N FErr=  9.69D-16 BErr=  2.42D-17
 DidBck=F Rises=F RFO-DIIS coefs:    0.92603    0.07397
 Iteration  1 RMS(Cart)=  0.00014945 RMS(Int)=  0.00000001
 Iteration  2 RMS(Cart)=  0.00000001 RMS(Int)=  0.00000000
 ITry= 1 IFail=0 DXMaxC= 2.05D-04 DCOld= 1.00D+10 DXMaxT= 5.05D-01 DXLimC= 3.00D+00 Rises=F
 ClnCor:  largest displacement from symmetrization is 1.09D-14 for atom     1.
 Variable       Old X    -DE/DX   Delta X   Delta X   Delta X     New X
                                 (Linear)    (Quad)   (Total)
    R1        2.11582  -0.00004   0.00009  -0.00019  -0.00009   2.11573
    R2        2.11582  -0.00004   0.00009  -0.00019  -0.00009   2.11573
    R3        2.35213  -0.00011  -0.00006  -0.00005  -0.00010   2.35202
    A1        1.98678   0.00005   0.00014   0.00016   0.00030   1.98708
    A2        2.14820  -0.00003  -0.00007  -0.00008  -0.00015   2.14805
    A3        2.14820  -0.00003  -0.00007  -0.00008  -0.00015   2.14805
    D1        3.14159   0.00000   0.00000   0.00000   0.00000   3.14159
         Item               Value     Threshold  Converged?
 Maximum Force            0.000110     0.000450     YES
 RMS     Force            0.000051     0.000300     YES
 Maximum Displacement     0.000205     0.001800     YES
 RMS     Displacement     0.000149     0.001200     YES
 Predicted change in Energy=-2.020947D-08
 Optimization completed.
    -- Stationary point found.
[...]
            X                                                                                                                        
            X                                                                                                                        
            X                                                                                                                        
            X                                                                                                                        
            X                                                                                                                        
            X                                                                                                                        
            X                                                                                                                        
            X                                                                                                                        
            X                                                                                                                        
 
 ***** Axes restored to original set *****
 -------------------------------------------------------------------
 Center     Atomic                   Forces (Hartrees/Bohr)
 Number     Number              X              Y              Z
 -------------------------------------------------------------------
      1        6           0.000182456    0.000316155    0.000000000
      2        1           0.000016443   -0.000023111   -0.000000000
      3        1          -0.000028237    0.000002674   -0.000000000
      4        8          -0.000170661   -0.000295718   -0.000000000
 -------------------------------------------------------------------
 Cartesian Forces:  Max     0.000316155 RMS     0.000144749
 -------------------------------------------------------------------
 Center     Atomic                Nonadiabatic Coup. (Bohr^-1)
 Number     Number              X              Y              Z
 -------------------------------------------------------------------
      1        6           0.000000000   -0.000000000    0.000000000
      2        1          -0.000000000    0.000000000    0.325000825
      3        1          -0.000000000    0.000000000   -0.325000825
      4        8           0.000000000   -0.000000000   -0.000000000
 -------------------------------------------------------------------
 Cartesian Nonad. Coup.:  Max     0.325000825 RMS     0.132681031
 Force constants in Cartesian coordinates: 
                1             2             3             4             5 
      1  0.730554D+00
      2  0.458162D-01  0.783502D+00
      3  0.000000D+00  0.000000D+00 -0.250073D-01
      4 -0.152367D+00  0.156452D+00  0.000000D+00  0.150132D+00
      5  0.166467D+00 -0.310596D+00  0.000000D+00 -0.165255D+00  0.329528D+00
      6  0.000000D+00  0.000000D+00  0.905048D-02  0.000000D+00  0.000000D+00
      7 -0.410876D+00  0.170916D-01  0.000000D+00 -0.418209D-02 -0.804828D-02
      8  0.707650D-02 -0.520877D-01  0.000000D+00  0.257843D-01  0.606642D-02
      9  0.000000D+00  0.000000D+00  0.905048D-02  0.000000D+00  0.000000D+00
     10 -0.167310D+00 -0.219360D+00  0.000000D+00  0.641761D-02  0.683631D-02
     11 -0.219360D+00 -0.420818D+00  0.000000D+00 -0.169812D-01 -0.249984D-01
     12  0.000000D+00  0.000000D+00  0.690634D-02  0.000000D+00  0.000000D+00
                6             7             8             9            10 
      6 -0.325725D-02
      7  0.000000D+00  0.427798D+00
      8  0.000000D+00 -0.480981D-02  0.518623D-01
      9 -0.326156D-02  0.000000D+00  0.000000D+00 -0.325725D-02
     10  0.000000D+00 -0.127398D-01 -0.280510D-01  0.000000D+00  0.173632D+00
     11  0.000000D+00 -0.423351D-02 -0.584100D-02  0.000000D+00  0.240574D+00
     12 -0.253167D-02  0.000000D+00  0.000000D+00 -0.253167D-02  0.000000D+00
               11            12 
     11  0.451657D+00
     12  0.000000D+00 -0.184300D-02
 FormGI is forming the generalized inverse of G from B-inverse, IUseBI=4.
 Force constants in internal coordinates: 
                1             2             3             4             5 
      1  0.427845D+00
      2 -0.457378D-02  0.427845D+00
      3  0.966911D-02  0.966911D-02  0.590495D+00
      4  0.403541D-02  0.403541D-02 -0.265397D-01  0.729368D-01
      5  0.890807D-02 -0.129435D-01  0.132698D-01 -0.364684D-01  0.753765D-01
      6 -0.129435D-01  0.890807D-02  0.132698D-01 -0.364684D-01 -0.389081D-01
      7  0.000000D+00  0.000000D+00  0.000000D+00  0.000000D+00  0.000000D+00
                6             7 
      6  0.753765D-01
      7  0.000000D+00 -0.106499D-01
 Leave Link  716 at Fri Feb 23 12:43:09 2024, MaxMem= 14763950080 cpu:               0.5 elap:               0.0
 (Enter /apps/gaussian/g16-c01-avx2/g16/l103.exe)

 GradGradGradGradGradGradGradGradGradGradGradGradGradGradGradGradGradGrad
 Berny optimization.
 Red2BG is reusing G-inverse.
 Internal  Forces:  Max     0.000341430 RMS     0.000129938
 Search for a local minimum.
 Step number   1 out of a maximum of    2
 All quantities printed in internal units (Hartrees-Bohrs-Radians)
 Second derivative matrix not updated -- analytic derivatives used.
 The second derivative matrix:
                          R1        R2        R3        A1        A2
           R1           0.42784
           R2          -0.00457   0.42784
           R3           0.00967   0.00967   0.59049
           A1           0.00404   0.00404  -0.02654   0.07294
           A2           0.00891  -0.01294   0.01327  -0.03647   0.07538
           A3          -0.01294   0.00891   0.01327  -0.03647  -0.03891
           D1          -0.00000  -0.00000  -0.00000   0.00000   0.00000
                          A3        D1
           A3           0.07538
           D1          -0.00000  -0.01065
 ITU=  0
     Eigenvalues ---   -0.01065   0.10702   0.11279   0.42245   0.43391
     Eigenvalues ---    0.59370
 Eigenvalue     1 is  -1.06D-02 should be greater than     0.000000 Eigenvector:
                          D1        R1        A3        R2        A1
   1                    1.00000   0.00000   0.00000   0.00000  -0.00000
                          A2        R3
   1                   -0.00000   0.00000
 Angle between quadratic step and forces=  15.24 degrees.
 Linear search not attempted -- first point.
 Iteration  1 RMS(Cart)=  0.00016676 RMS(Int)=  0.00000000
 Iteration  2 RMS(Cart)=  0.00000000 RMS(Int)=  0.00000000
 ITry= 1 IFail=0 DXMaxC= 3.18D-04 DCOld= 1.00D+10 DXMaxT= 3.00D-01 DXLimC= 3.00D+00 Rises=F
 Variable       Old X    -DE/DX   Delta X   Delta X   Delta X     New X
                                 (Linear)    (Quad)   (Total)
    R1        2.06611   0.00003   0.00000   0.00008   0.00008   2.06619
    R2        2.06611   0.00003   0.00000   0.00008   0.00008   2.06619
    R3        2.56785  -0.00034   0.00000  -0.00059  -0.00059   2.56726
    A1        2.13288   0.00000   0.00000  -0.00012  -0.00012   2.13276
    A2        2.07515  -0.00000   0.00000   0.00006   0.00006   2.07521
    A3        2.07515  -0.00000   0.00000   0.00006   0.00006   2.07521
    D1        3.14159  -0.00000   0.00000  -0.00000   0.00000   3.14159
         Item               Value     Threshold  Converged?
 Maximum Force            0.000341     0.000450     YES
 RMS     Force            0.000130     0.000300     YES
 Maximum Displacement     0.000318     0.001800     YES
 RMS     Displacement     0.000167     0.001200     YES
 Predicted change in Energy=-1.026233D-07
 Optimization completed.
    -- Stationary point found.
                           ----------------------------
                           !   Optimized Parameters   !
                           ! (Angstroms and Degrees)  !
 --------------------------                            --------------------------
 ! Name  Definition              Value          Derivative Info.                !
 --------------------------------------------------------------------------------
 ! R1    R(1,2)                  1.0933         -DE/DX =    0.0                 !
 ! R2    R(1,3)                  1.0933         -DE/DX =    0.0                 !
 ! R3    R(1,4)                  1.3588         -DE/DX =   -0.0003              !
 ! A1    A(2,1,3)              122.2051         -DE/DX =    0.0                 !
 ! A2    A(2,1,4)              118.8974         -DE/DX =    0.0                 !
 ! A3    A(3,1,4)              118.8974         -DE/DX =    0.0                 !
 ! D1    D(2,1,4,3)            180.0            -DE/DX =    0.0                 !
 --------------------------------------------------------------------------------
 GradGradGradGradGradGradGradGradGradGradGradGradGradGradGradGradGradGrad

 Leave Link  103 at Fri Feb 23 12:43:09 2024, MaxMem= 14763950080 cpu:               0.3 elap:               0.0
 (Enter /apps/gaussian/g16-c01-avx2/g16/l9999.exe)
 -------------------------------------------------------------------
 Center     Atomic                Nonadiabatic Coup. (Bohr^-1)
 Number     Number              X              Y              Z
 -------------------------------------------------------------------
      1        6           0.000000000   -0.000000000    0.000000000
      2        1          -0.000000000    0.000000000    0.325000825
      3        1          -0.000000000    0.000000000   -0.325000825
      4        8           0.000000000   -0.000000000   -0.000000000
 -------------------------------------------------------------------
 Cartesian Nonad. Coup.:  Max     0.325000825 RMS     0.132681031
 Electronic transition elements 
                 1             2             3 
      1  -0.112781D+03 -0.112596D+03 -0.112477D+03
      2   0.000000D+00  0.000000D+00  0.000000D+00
      3   0.000000D+00  0.000000D+00  0.000000D+00
      4   0.000000D+00 -0.184890D+00  0.000000D+00
      5   0.000000D+00  0.000000D+00  0.000000D+00
      6   0.000000D+00  0.000000D+00  0.000000D+00
      7   0.000000D+00  0.160319D+00  0.000000D+00
      8   0.587692D+00  0.152500D+01 -0.350891D+00
      9   0.101834D+01 -0.880089D+00 -0.608016D+00
     10   0.000000D+00  0.000000D+00  0.000000D+00
     11   0.000000D+00  0.000000D+00  0.000000D+00
     12   0.000000D+00  0.000000D+00  0.000000D+00
     13   0.000000D+00  0.000000D+00  0.000000D+00
     14   0.000000D+00  0.000000D+00  0.000000D+00
     15   0.195477D-01  0.513506D-01  0.340904D-01
     16  -0.112811D-01  0.889792D-01 -0.196738D-01
 Electronic Transition Derivatives 
                 1             2             3             4             5 
      1   0.000000D+00  0.000000D+00  0.000000D+00  0.000000D+00  0.000000D+00
      2   0.000000D+00  0.000000D+00 -0.624717D+00  0.000000D+00  0.000000D+00
      3   0.000000D+00  0.000000D+00  0.360529D+00  0.000000D+00  0.000000D+00
      4  -0.713783D+00  0.411929D+00  0.000000D+00 -0.416524D-01  0.240379D-01
      5   0.000000D+00  0.000000D+00 -0.261047D+00  0.000000D+00  0.000000D+00
      6   0.000000D+00  0.000000D+00  0.150652D+00  0.000000D+00  0.000000D+00
      7   0.484610D+00 -0.279672D+00  0.000000D+00 -0.650903D-02  0.375641D-02
      8  -0.126340D+00 -0.261490D+00  0.000000D+00 -0.600494D+00  0.220311D+00
      9  -0.261490D+00 -0.428536D+00  0.000000D+00  0.220311D+00 -0.345888D+00
     10   0.000000D+00  0.000000D+00  0.145353D+01  0.000000D+00  0.000000D+00
     11   0.000000D+00  0.000000D+00 -0.205418D+00  0.000000D+00  0.000000D+00
     12   0.000000D+00  0.000000D+00  0.205418D+00  0.000000D+00  0.000000D+00
     13   0.000000D+00  0.000000D+00  0.000000D+00  0.000000D+00  0.000000D+00
     14   0.000000D+00  0.000000D+00 -0.118698D+00  0.000000D+00  0.000000D+00
     15   0.149709D+00 -0.102866D+00  0.000000D+00  0.111321D-01  0.638900D-02
     16   0.275880D+00 -0.149709D+00  0.000000D+00  0.647600D-02 -0.111321D-01
                 6             7             8             9            10 
      1   0.000000D+00  0.000000D+00  0.000000D+00  0.000000D+00  0.000000D+00
      2  -0.143217D+00  0.000000D+00  0.000000D+00  0.515576D-01  0.000000D+00
      3   0.826516D-01  0.000000D+00  0.000000D+00 -0.297613D-01  0.000000D+00
      4   0.000000D+00  0.155090D-01  0.844703D-03  0.000000D+00  0.702801D-02
      5   0.713887D-02  0.000000D+00  0.000000D+00 -0.257002D-02  0.000000D+00
      6  -0.411990D-02  0.000000D+00  0.000000D+00  0.148349D-02  0.000000D+00
      7   0.000000D+00  0.205096D-02 -0.676264D-02  0.000000D+00  0.688152D-02
      8   0.000000D+00  0.747291D-01  0.122208D+00  0.000000D+00  0.348414D-01
      9   0.000000D+00 -0.521481D-01  0.620064D-01  0.000000D+00  0.991598D-01
     10  -0.172629D+00  0.000000D+00  0.000000D+00 -0.102694D+00  0.000000D+00
     11  -0.926724D-02  0.000000D+00  0.000000D+00 -0.328382D-02  0.000000D+00
     12   0.926724D-02  0.000000D+00  0.000000D+00 -0.919343D-02  0.000000D+00
     13   0.000000D+00  0.000000D+00  0.000000D+00  0.124770D-01  0.000000D+00
     14  -0.535494D-02  0.000000D+00  0.000000D+00  0.891272D-02  0.000000D+00
     15   0.000000D+00  0.677591D-03  0.460654D-02  0.000000D+00 -0.979513D-02
     16   0.000000D+00 -0.965451D-03  0.149434D-01  0.000000D+00 -0.987498D-02
                11            12            13            14            15 
      1   0.000000D+00  0.000000D+00  0.000000D+00  0.000000D+00  0.000000D+00
      2   0.000000D+00  0.515636D-01  0.000000D+00  0.000000D+00  0.400957D-01
      3   0.000000D+00 -0.297508D-01  0.000000D+00  0.000000D+00 -0.231395D-01
      4  -0.138510D-01  0.000000D+00  0.191154D-01 -0.110317D-01  0.000000D+00
      5   0.000000D+00 -0.257029D-02  0.000000D+00  0.000000D+00 -0.199856D-02
      6   0.000000D+00  0.148302D-02  0.000000D+00  0.000000D+00  0.115339D-02
      7   0.160764D-02  0.000000D+00 -0.242345D-02  0.139859D-02  0.000000D+00
      8  -0.751966D-01  0.000000D+00  0.490924D+00 -0.267322D+00  0.000000D+00
      9   0.101894D+00  0.000000D+00 -0.267322D+00  0.181987D+00  0.000000D+00
     10   0.000000D+00 -0.102694D+00  0.000000D+00  0.000000D+00  0.378016D+00
     11   0.000000D+00  0.154360D-01  0.000000D+00  0.000000D+00 -0.288499D-02
     12   0.000000D+00 -0.295880D-02  0.000000D+00  0.000000D+00  0.288499D-02
     13   0.000000D+00 -0.124770D-01  0.000000D+00  0.000000D+00  0.000000D+00
     14   0.000000D+00 -0.189073D-02  0.000000D+00  0.000000D+00 -0.166705D-02
     15  -0.430299D-02  0.000000D+00 -0.201452D-02 -0.669256D-02  0.000000D+00
     16  -0.582583D-02  0.000000D+00  0.436444D-02  0.201452D-02  0.000000D+00

 ----------------------------------------------------------------------

 Electric dipole moment (input orientation):
 (Debye = 10**-18 statcoulomb cm , SI units = C m)
                  (au)            (Debye)         (10**-30 SI)
   Tot        0.300797D+00      0.764550D+00      0.255026D+01
   x         -0.150351D+00     -0.382154D+00     -0.127473D+01
   y         -0.260525D+00     -0.662189D+00     -0.220882D+01
   z          0.000000D+00      0.000000D+00      0.000000D+00

 Dipole polarizability, Alpha (input orientation).
 (esu units = cm**3 , SI units = C**2 m**2 J**-1)
 Alpha(0;0):
               (au)            (10**-24 esu)      (10**-40 SI)
   iso        0.650176D+01      0.963461D+00      0.107199D+01
   aniso      0.750406D+01      0.111199D+01      0.123725D+01
   xx         0.768879D+01      0.113936D+01      0.126771D+01
   yx         0.176529D+01      0.261589D+00      0.291057D+00
   yy         0.972888D+01      0.144167D+01      0.160408D+01
   zx         0.000000D+00      0.000000D+00      0.000000D+00
   zy         0.000000D+00      0.000000D+00      0.000000D+00
   zz         0.208760D+01      0.309351D+00      0.344199D+00

 ----------------------------------------------------------------------

 Dipole orientation:
     6         -0.40967521          0.23642673          1.20864097
     1          1.15699842         -0.66771272          2.20707316
     1         -1.97634884          1.14056617          2.20707316
     8         -0.40967521          0.23642673         -1.35920760

 Electric dipole moment (dipole orientation):
 (Debye = 10**-18 statcoulomb cm , SI units = C m)
                  (au)            (Debye)         (10**-30 SI)
   Tot        0.300797D+00      0.764550D+00      0.255026D+01
   x          0.000000D+00      0.000000D+00      0.000000D+00
   y          0.000000D+00      0.000000D+00      0.000000D+00
   z          0.300797D+00      0.764550D+00      0.255026D+01

 Dipole polarizability, Alpha (dipole orientation).
 (esu units = cm**3 , SI units = C**2 m**2 J**-1)
 Alpha(0;0):
               (au)            (10**-24 esu)      (10**-40 SI)
   iso        0.650176D+01      0.963461D+00      0.107199D+01
   aniso      0.750406D+01      0.111199D+01      0.123725D+01
   xx         0.552514D+01      0.818742D+00      0.910973D+00
   yx        -0.198383D+01     -0.293973D+00     -0.327089D+00
   yy         0.323249D+01      0.479005D+00      0.532965D+00
   zx         0.000000D+00      0.000000D+00      0.000000D+00
   zy         0.000000D+00      0.000000D+00      0.000000D+00
   zz         0.107476D+02      0.159264D+01      0.177205D+01

 ----------------------------------------------------------------------
 Unable to Open any file for archive entry.
 1\1\GINC-CX3-2-4\Freq\RCAM-B3LYP TD-FC\STO-3G\C1H2O1\RK820\23-Feb-2024
 \0\\#p TD(Root=1)/CAM-B3LYP geom=check Density=Current Freq\\TD/CAM-B3
 LYP for formaldehyde, performing a frequency calculation on the first 
 excited state.\\0,1\C,-0.5364826381,-0.4288436186,0.\H,0.028474812,-1.
 3649040729,0.\H,-1.629621151,-0.4080040899,0.\O,0.1427267292,0.7480759
 445,0.\\Version=ES64L-G16RevC.01\State=1-A1\HF=-112.8805583\RMSD=7.581
 e-09\RMSF=1.447e-04\ZeroPoint=0.0247581\Thermal=0.0276449\ETot=-112.75
 3135\HTot=-112.7521908\GTot=-112.7772293\Dipole=-0.1503511,-0.2605252,
 0.\DipoleDeriv=-0.0109978,-0.1597205,0.,-0.1597205,-0.1955821,0.,0.,0.
 ,-0.4390805,0.0063919,-0.0042333,0.,-0.0005081,0.1438307,0.,0.,0.,0.20
 02498,0.1114817,0.0602165,0.,0.0564913,0.038741,0.,0.,0.,0.2002498,-0.
 1068758,0.1037373,0.,0.1037373,0.0130103,0.,0.,0.,0.0385809\Polar=7.68
 87863,1.7652881,9.7288786,0.,0.,2.087604\Quadrupole=0.6035987,0.052698
 3,-0.656297,-0.4766931,0.,0.\PG=C02V [C2(C1O1),SGV(H2)]\NImag=1\\0.730
 55357,0.04581619,0.78350201,0.,0.,-0.02500729,-0.15236734,0.15645196,0
 .,0.15013182,0.16646705,-0.31059631,0.,-0.16525509,0.32952829,0.,0.,0.
 00905048,0.,0.,-0.00325725,-0.41087595,0.01709160,0.,-0.00418209,-0.00
 804828,0.,0.42779783,0.00707650,-0.05208771,0.,0.02578432,0.00606642,0
 .,-0.00480981,0.05186229,0.,0.,0.00905048,0.,0.,-0.00326156,0.,0.,-0.0
 0325725,-0.16731028,-0.21935975,0.,0.00641761,0.00683631,0.,-0.0127397
 9,-0.02805102,0.,0.17363246,-0.21935975,-0.42081799,0.,-0.01698119,-0.
 02499840,0.,-0.00423351,-0.00584100,0.,0.24057445,0.45165738,0.,0.,0.0
 0690634,0.,0.,-0.00253167,0.,0.,-0.00253167,0.,0.,-0.00184300\\-0.0001
 8246,-0.00031616,0.,-0.00001644,0.00002311,0.,0.00002824,-0.00000267,0
 .,0.00017066,0.00029572,0.\\\@
 The archive entry for this job was punched.


 IF YOU BELIEVE CERTAIN WORDS, YOU BELIEVE THEIR HIDDEN ARGUMENTS.
 WHEN YOU BELIEVE SOMETHING IS RIGHT OR WRONG, TRUE OR FALSE, 
 YOU BELIEVE THE ASSUMPTIONS IN THE WORDS WHICH EXPRESS THE ARGUMENTS.
 SUCH ASSUMPTIONS ARE OFTEN FULL OF HOLES, BUT REMAIN MOST PRECIOUS 
 TO THE CONVINCED.

                 -- THE OPEN-ENDED PROOF FROM THE PANOPLIA PROPHETICA
                    CHILDREN OF DUNE BY FRANK HERBERT
 Job cpu time:       0 days  0 hours  1 minutes 30.8 seconds.
 Elapsed time:       0 days  0 hours  0 minutes  3.2 seconds.
 File lengths (MBytes):  RWF=      6 Int=      0 D2E=      0 Chk=      1 Scr=      1
 Normal termination of Gaussian 16 at Fri Feb 23 12:43:09 2024.
