 Entering Gaussian System, Link 0=g16
 Input=CH2O_CAM-B3LYP_linked.gjf
 Output=CH2O_CAM-B3LYP_linked.log
 Initial command:
 /apps/gaussian/g16-c01-avx2/g16/l1.exe "/var/tmp/pbs.8988148.pbs/Gau-3107070.inp" -scrdir="/var/tmp/pbs.8988148.pbs/"
 Entering Link 1 = /apps/gaussian/g16-c01-avx2/g16/l1.exe PID=   3107407.
  
 Copyright (c) 1988-2019, Gaussian, Inc.  All Rights Reserved.
  
 This is part of the Gaussian(R) 16 program.  It is based on
 the Gaussian(R) 09 system (copyright 2009, Gaussian, Inc.),
 the Gaussian(R) 03 system (copyright 2003, Gaussian, Inc.),
 the Gaussian(R) 98 system (copyright 1998, Gaussian, Inc.),
 the Gaussian(R) 94 system (copyright 1995, Gaussian, Inc.),
 the Gaussian 92(TM) system (copyright 1992, Gaussian, Inc.),
 the Gaussian 90(TM) system (copyright 1990, Gaussian, Inc.),
 the Gaussian 88(TM) system (copyright 1988, Gaussian, Inc.),
 the Gaussian 86(TM) system (copyright 1986, Carnegie Mellon
 University), and the Gaussian 82(TM) system (copyright 1983,
 Carnegie Mellon University). Gaussian is a federally registered
 trademark of Gaussian, Inc.
  
 This software contains proprietary and confidential information,
 including trade secrets, belonging to Gaussian, Inc.
  
 This software is provided under written license and may be
 used, copied, transmitted, or stored only in accord with that
 written license.
  
 The following legend is applicable only to US Government
 contracts under FAR:
  
                    RESTRICTED RIGHTS LEGEND
  
 Use, reproduction and disclosure by the US Government is
 subject to restrictions as set forth in subparagraphs (a)
 and (c) of the Commercial Computer Software - Restricted
 Rights clause in FAR 52.227-19.
  
 Gaussian, Inc.
 340 Quinnipiac St., Bldg. 40, Wallingford CT 06492
  
  
 ---------------------------------------------------------------
 Warning -- This program may not be used in any manner that
 competes with the business of Gaussian, Inc. or will provide
 assistance to any competitor of Gaussian, Inc.  The licensee
 of this program is prohibited from giving any competitor of
 Gaussian, Inc. access to this program.  By using this program,
 the user acknowledges that Gaussian, Inc. is engaged in the
 business of creating and licensing software in the field of
 computational chemistry and represents and warrants to the
 licensee that it is not a competitor of Gaussian, Inc. and that
 it will not use this program in any manner prohibited above.
 ---------------------------------------------------------------
  

 Cite this work as:
 Gaussian 16, Revision C.01,
 M. J. Frisch, G. W. Trucks, H. B. Schlegel, G. E. Scuseria, 
 M. A. Robb, J. R. Cheeseman, G. Scalmani, V. Barone, 
 G. A. Petersson, H. Nakatsuji, X. Li, M. Caricato, A. V. Marenich, 
 J. Bloino, B. G. Janesko, R. Gomperts, B. Mennucci, H. P. Hratchian, 
 J. V. Ortiz, A. F. Izmaylov, J. L. Sonnenberg, D. Williams-Young, 
 F. Ding, F. Lipparini, F. Egidi, J. Goings, B. Peng, A. Petrone, 
 T. Henderson, D. Ranasinghe, V. G. Zakrzewski, J. Gao, N. Rega, 
 G. Zheng, W. Liang, M. Hada, M. Ehara, K. Toyota, R. Fukuda, 
 J. Hasegawa, M. Ishida, T. Nakajima, Y. Honda, O. Kitao, H. Nakai, 
 T. Vreven, K. Throssell, J. A. Montgomery, Jr., J. E. Peralta, 
 F. Ogliaro, M. J. Bearpark, J. J. Heyd, E. N. Brothers, K. N. Kudin, 
 V. N. Staroverov, T. A. Keith, R. Kobayashi, J. Normand, 
 K. Raghavachari, A. P. Rendell, J. C. Burant, S. S. Iyengar, 
 J. Tomasi, M. Cossi, J. M. Millam, M. Klene, C. Adamo, R. Cammi, 
 J. W. Ochterski, R. L. Martin, K. Morokuma, O. Farkas, 
 J. B. Foresman, and D. J. Fox, Gaussian, Inc., Wallingford CT, 2019.
 
 ******************************************
 Gaussian 16:  ES64L-G16RevC.01  3-Jul-2019
                26-Feb-2024 
 ******************************************
 %chk=CAM-B3LYP_job1
 %NProc=32
 Will use up to   32 processors via shared memory.
 %Mem=110GB
 --------------------------------------------
 #p CAM-B3LYP/TZVP geom=connectivity Opt Freq
 --------------------------------------------
 1/18=20,19=15,26=3,38=1,57=2/1,3;
 2/9=110,12=2,17=6,18=5,40=1/2;
 3/5=19,7=101,11=2,25=1,30=1,71=1,74=-40/1,2,3;
 4//1;
 5/5=2,38=5/2;
 6/7=2,8=2,9=2,10=2,28=1/1;
 7//1,2,3,16;
 1/18=20,19=15,26=3/3(2);
 2/9=110/2;
 99//99;
 2/9=110/2;
 3/5=19,7=101,11=2,25=1,30=1,71=1,74=-40/1,2,3;
 4/5=5,16=3,69=1/1;
 5/5=2,38=5/2;
 7//1,2,3,16;
 1/18=20,19=15,26=3/3(-5);
 2/9=110/2;
 6/7=2,8=2,9=2,10=2,19=2,28=1/1;
 99/9=1/99;
 Leave Link    1 at Mon Feb 26 13:53:11 2024, MaxMem= 14763950080 cpu:               0.4 elap:               0.0
 (Enter /apps/gaussian/g16-c01-avx2/g16/l101.exe)
 --------------------------------------------------------------------
 Ground state optimization and frequency calculation for formaldehyde
 --------------------------------------------------------------------
 Symbolic Z-matrix:
 Charge =  0 Multiplicity = 1
 C                    -0.52227  -0.40421   0. 
 H                     0.0129   -1.33076   0. 
 H                    -1.59227  -0.40441   0. 
 O                     0.10673   0.68571   0. 
 
 ITRead=  0  0  0  0
 MicOpt= -1 -1 -1 -1
 NAtoms=      4 NQM=        4 NQMF=       0 NMMI=      0 NMMIF=      0
                NMic=       0 NMicF=      0.
                    Isotopes and Nuclear Properties:
 (Nuclear quadrupole moments (NQMom) in fm**2, nuclear magnetic moments (NMagM)
  in nuclear magnetons)

  Atom         1           2           3           4
 IAtWgt=          12           1           1          16
 AtmWgt=  12.0000000   1.0078250   1.0078250  15.9949146
 NucSpn=           0           1           1           0
 AtZEff=  -0.0000000  -0.0000000  -0.0000000  -0.0000000
 NQMom=    0.0000000   0.0000000   0.0000000   0.0000000
 NMagM=    0.0000000   2.7928460   2.7928460   0.0000000
 AtZNuc=   6.0000000   1.0000000   1.0000000   8.0000000
 Leave Link  101 at Mon Feb 26 13:53:12 2024, MaxMem= 14763950080 cpu:               4.7 elap:               0.2
 (Enter /apps/gaussian/g16-c01-avx2/g16/l103.exe)

 GradGradGradGradGradGradGradGradGradGradGradGradGradGradGradGradGradGrad
 Berny optimization.
 Initialization pass.
                           ----------------------------
                           !    Initial Parameters    !
                           ! (Angstroms and Degrees)  !
 --------------------------                            --------------------------
 ! Name  Definition              Value          Derivative Info.                !
 --------------------------------------------------------------------------------
 ! R1    R(1,2)                  1.07           estimate D2E/DX2                !
 ! R2    R(1,3)                  1.07           estimate D2E/DX2                !
 ! R3    R(1,4)                  1.2584         estimate D2E/DX2                !
 ! A1    A(2,1,3)              120.0            estimate D2E/DX2                !
 ! A2    A(2,1,4)              120.0            estimate D2E/DX2                !
 ! A3    A(3,1,4)              120.0            estimate D2E/DX2                !
 ! D1    D(2,1,4,3)            180.0            estimate D2E/DX2                !
 --------------------------------------------------------------------------------
 Trust Radius=3.00D-01 FncErr=1.00D-07 GrdErr=1.00D-06 EigMax=2.50D+02 EigMin=1.00D-04
 Number of steps in this run=     20 maximum allowed number of steps=    100.
 GradGradGradGradGradGradGradGradGradGradGradGradGradGradGradGradGradGrad

 Leave Link  103 at Mon Feb 26 13:53:13 2024, MaxMem= 14763950080 cpu:               0.5 elap:               0.0
 (Enter /apps/gaussian/g16-c01-avx2/g16/l202.exe)
                          Input orientation:                          
 ---------------------------------------------------------------------
 Center     Atomic      Atomic             Coordinates (Angstroms)
 Number     Number       Type             X           Y           Z
 ---------------------------------------------------------------------
      1          6           0       -0.522268   -0.404213    0.000000
      2          1           0        0.012900   -1.330763    0.000000
      3          1           0       -1.592268   -0.404408    0.000000
      4          8           0        0.106734    0.685708    0.000000
 ---------------------------------------------------------------------
                    Distance matrix (angstroms):
                    1          2          3          4
     1  C    0.000000
     2  H    1.070000   0.000000
     3  H    1.070000   1.853294   0.000000
     4  O    1.258400   2.018653   2.018653   0.000000
 Stoichiometry    CH2O
 Framework group  C2V[C2(CO),SGV(H2)]
 Deg. of freedom     3
 Full point group                 C2V     NOp   4
 Largest Abelian subgroup         C2V     NOp   4
 Largest concise Abelian subgroup C2      NOp   2
                         Standard orientation:                         
 ---------------------------------------------------------------------
 Center     Atomic      Atomic             Coordinates (Angstroms)
 Number     Number       Type             X           Y           Z
 ---------------------------------------------------------------------
      1          6           0        0.000000   -0.000000   -0.562325
      2          1           0        0.000000   -0.926647   -1.097325
      3          1           0        0.000000    0.926647   -1.097325
      4          8           0        0.000000   -0.000000    0.696075
 ---------------------------------------------------------------------
 Rotational constants (GHZ):         291.9935432          36.5845887          32.5111827
 Leave Link  202 at Mon Feb 26 13:53:13 2024, MaxMem= 14763950080 cpu:               0.8 elap:               0.0
 (Enter /apps/gaussian/g16-c01-avx2/g16/l301.exe)
 Standard basis: TZVP (5D, 7F)
 Ernie: Thresh=  0.10000D-02 Tol=  0.10000D-05 Strict=F.
 There are    27 symmetry adapted cartesian basis functions of A1  symmetry.
 There are     3 symmetry adapted cartesian basis functions of A2  symmetry.
 There are     9 symmetry adapted cartesian basis functions of B1  symmetry.
 There are    13 symmetry adapted cartesian basis functions of B2  symmetry.
 There are    25 symmetry adapted basis functions of A1  symmetry.
 There are     3 symmetry adapted basis functions of A2  symmetry.
 There are     9 symmetry adapted basis functions of B1  symmetry.
 There are    13 symmetry adapted basis functions of B2  symmetry.
    50 basis functions,    86 primitive gaussians,    52 cartesian basis functions
     8 alpha electrons        8 beta electrons
       nuclear repulsion energy        30.5992945771 Hartrees.
 IExCor=20419 DFT=T Ex+Corr=CAM-B3LYP ExCW=0 ScaHFX=  1.000000
 ScaDFX=  1.000000  1.000000  1.000000  0.810000 ScalE2=  1.000000  1.000000
 IRadAn=      5 IRanWt=     -1 IRanGd=            0 ICorTp=0 IEmpDi=  4
 HFx  wShort=  0.000000 wLong=  0.330000 cFull=  0.190000 cShort=  0.000000 cLong=  0.460000
 DFx  wShort=  0.000000 wLong=  0.330000 cFull=  0.190000 cShort=  0.000000 cLong=  0.460000
 NAtoms=    4 NActive=    4 NUniq=    3 SFac= 1.78D+00 NAtFMM=   60 NAOKFM=F Big=F
 Integral buffers will be    131072 words long.
 Raffenetti 2 integral format.
 Two-electron integral symmetry is turned on.
 Leave Link  301 at Mon Feb 26 13:53:14 2024, MaxMem= 14763950080 cpu:               1.4 elap:               0.1
 (Enter /apps/gaussian/g16-c01-avx2/g16/l302.exe)
 NPDir=0 NMtPBC=     1 NCelOv=     1 NCel=       1 NClECP=     1 NCelD=      1
         NCelK=      1 NCelE2=     1 NClLst=     1 CellRange=     0.0.
 One-electron integrals computed using PRISM.
 One-electron integral symmetry used in STVInt
 NBasis=    50 RedAO= T EigKep=  5.12D-03  NBF=    25     3     9    13
 NBsUse=    50 1.00D-06 EigRej= -1.00D+00 NBFU=    25     3     9    13
 Precomputing XC quadrature grid using
 IXCGrd= 4 IRadAn=           5 IRanWt=          -1 IRanGd=           0 AccXCQ= 0.00D+00.
 Generated NRdTot=       0 NPtTot=           0 NUsed=           0 NTot=          32
 NSgBfM=    52    52    52    52    52 MxSgAt=     4 MxSgA2=     4.
 Leave Link  302 at Mon Feb 26 13:53:15 2024, MaxMem= 14763950080 cpu:               2.2 elap:               0.1
 (Enter /apps/gaussian/g16-c01-avx2/g16/l303.exe)
 DipDrv:  MaxL=1.
 Leave Link  303 at Mon Feb 26 13:53:15 2024, MaxMem= 14763950080 cpu:               0.4 elap:               0.0
 (Enter /apps/gaussian/g16-c01-avx2/g16/l401.exe)
 ExpMin= 9.52D-02 ExpMax= 2.70D+04 ExpMxC= 9.22D+02 IAcc=3 IRadAn=         5 AccDes= 0.00D+00
 Harris functional with IExCor=20419 and IRadAn=       5 diagonalized for initial guess.
 HarFok:  IExCor=20419 AccDes= 0.00D+00 IRadAn=         5 IDoV= 1 UseB2=F ITyADJ=14
 ICtDFT=  3500011 ScaDFX=  1.000000  1.000000  1.000000  1.000000
 FoFCou: FMM=F IPFlag=           0 FMFlag=      100000 FMFlg1=           0
         NFxFlg=           0 DoJE=T BraDBF=F KetDBF=T FulRan=T
         wScrn=  0.000000 ICntrl=       500 IOpCl=  0 I1Cent=   200000004 NGrid=           0
         NMat0=    1 NMatS0=      1 NMatT0=    0 NMatD0=    1 NMtDS0=    0 NMtDT0=    0
 Petite list used in FoFCou.
 Harris En= -110.517881772515    
 JPrj=0 DoOrth=F DoCkMO=F.
 Initial guess orbital symmetries:
       Occupied  (A1) (A1) (A1) (A1) (B2) (A1) (B1) (B2)
       Virtual   (B1) (A1) (A1) (B2) (A1) (B1) (B2) (A1) (A1) (B2)
                 (A1) (B1) (B2) (A1) (A2) (A1) (B2) (A1) (B1) (B1)
                 (B2) (A1) (B2) (B1) (A1) (A2) (A1) (A1) (B2) (B1)
                 (A1) (B2) (A2) (A1) (A1) (B2) (B1) (A1) (B2) (A1)
                 (A1) (A1)
 The electronic state of the initial guess is 1-A1.
 Leave Link  401 at Mon Feb 26 13:53:16 2024, MaxMem= 14763950080 cpu:               7.8 elap:               0.3
 (Enter /apps/gaussian/g16-c01-avx2/g16/l502.exe)
 Keep R1 ints in memory in symmetry-blocked form, NReq=29755384.
 FoFCou: FMM=F IPFlag=           0 FMFlag=           0 FMFlg1=           0
         NFxFlg=           0 DoJE=F BraDBF=F KetDBF=F FulRan=T
         wScrn=  0.000000 ICntrl=       600 IOpCl=  0 I1Cent=           0 NGrid=           0
         NMat0=    1 NMatS0=   1275 NMatT0=    0 NMatD0=    1 NMtDS0=    0 NMtDT0=    0
 Petite list used in FoFCou.
 Closed shell SCF:
 Using DIIS extrapolation, IDIIS=  1040.
 NGot= 14763950080 LenX= 14763712828 LenY= 14763709683
 Requested convergence on RMS density matrix=1.00D-08 within 128 cycles.
 Requested convergence on MAX density matrix=1.00D-06.
 Requested convergence on             energy=1.00D-06.
 No special actions if energy rises.
 Integral accuracy reduced to 1.0D-05 until final iterations.

 Cycle   1  Pass 0  IDiag  1:
 E= -114.465365021095    
 DIIS: error= 8.33D-02 at cycle   1 NSaved=   1.
 NSaved= 1 IEnMin= 1 EnMin= -114.465365021095     IErMin= 1 ErrMin= 8.33D-02
 ErrMax= 8.33D-02  0.00D+00 EMaxC= 1.00D-01 BMatC= 1.92D-01 BMatP= 1.92D-01
 IDIUse=3 WtCom= 1.67D-01 WtEn= 8.33D-01
 Coeff-Com:  0.100D+01
 Coeff-En:   0.100D+01
 Coeff:      0.100D+01
 Gap=     0.347 Goal=   None    Shift=    0.000
 GapD=    0.347 DampG=1.000 DampE=0.500 DampFc=0.5000 IDamp=-1.
 Damping current iteration by 5.00D-01
 RMSDP=4.89D-03 MaxDP=4.19D-02              OVMax= 8.42D-02

 Cycle   2  Pass 0  IDiag  1:
 E= -114.476978452193     Delta-E=       -0.011613431098 Rises=F Damp=T
 DIIS: error= 3.59D-02 at cycle   2 NSaved=   2.
 NSaved= 2 IEnMin= 2 EnMin= -114.476978452193     IErMin= 2 ErrMin= 3.59D-02
 ErrMax= 3.59D-02  0.00D+00 EMaxC= 1.00D-01 BMatC= 3.63D-02 BMatP= 1.92D-01
 IDIUse=3 WtCom= 6.41D-01 WtEn= 3.59D-01
 Coeff-Com: -0.482D+00 0.148D+01
 Coeff-En:   0.000D+00 0.100D+01
 Coeff:     -0.309D+00 0.131D+01
 Gap=     0.309 Goal=   None    Shift=    0.000
 RMSDP=2.16D-03 MaxDP=2.48D-02 DE=-1.16D-02 OVMax= 1.06D-01

 Cycle   3  Pass 0  IDiag  1:
 E= -114.477602075182     Delta-E=       -0.000623622989 Rises=F Damp=F
 DIIS: error= 2.60D-02 at cycle   3 NSaved=   3.
 NSaved= 3 IEnMin= 3 EnMin= -114.477602075182     IErMin= 3 ErrMin= 2.60D-02
 ErrMax= 2.60D-02  0.00D+00 EMaxC= 1.00D-01 BMatC= 2.09D-02 BMatP= 3.63D-02
 IDIUse=3 WtCom= 7.40D-01 WtEn= 2.60D-01
 Coeff-Com: -0.376D+00 0.850D+00 0.526D+00
 Coeff-En:   0.000D+00 0.479D+00 0.521D+00
 Coeff:     -0.278D+00 0.754D+00 0.525D+00
 Gap=     0.335 Goal=   None    Shift=    0.000
 RMSDP=2.04D-03 MaxDP=2.10D-02 DE=-6.24D-04 OVMax= 6.26D-02

 Cycle   4  Pass 0  IDiag  1:
 E= -114.491200251785     Delta-E=       -0.013598176603 Rises=F Damp=F
 DIIS: error= 6.48D-03 at cycle   4 NSaved=   4.
 NSaved= 4 IEnMin= 4 EnMin= -114.491200251785     IErMin= 4 ErrMin= 6.48D-03
 ErrMax= 6.48D-03  0.00D+00 EMaxC= 1.00D-01 BMatC= 1.41D-03 BMatP= 2.09D-02
 IDIUse=3 WtCom= 9.35D-01 WtEn= 6.48D-02
 Coeff-Com: -0.863D-01 0.191D+00 0.271D+00 0.625D+00
 Coeff-En:   0.000D+00 0.000D+00 0.422D-01 0.958D+00
 Coeff:     -0.807D-01 0.178D+00 0.256D+00 0.646D+00
 Gap=     0.328 Goal=   None    Shift=    0.000
 RMSDP=3.70D-04 MaxDP=4.69D-03 DE=-1.36D-02 OVMax= 1.48D-02

 Cycle   5  Pass 0  IDiag  1:
 E= -114.492222050037     Delta-E=       -0.001021798252 Rises=F Damp=F
 DIIS: error= 4.62D-04 at cycle   5 NSaved=   5.
 NSaved= 5 IEnMin= 5 EnMin= -114.492222050037     IErMin= 5 ErrMin= 4.62D-04
 ErrMax= 4.62D-04  0.00D+00 EMaxC= 1.00D-01 BMatC= 8.94D-06 BMatP= 1.41D-03
 IDIUse=3 WtCom= 9.95D-01 WtEn= 4.62D-03
 Coeff-Com:  0.124D-01-0.270D-01-0.172D-01 0.653D-01 0.966D+00
 Coeff-En:   0.000D+00 0.000D+00 0.000D+00 0.000D+00 0.100D+01
 Coeff:      0.124D-01-0.269D-01-0.171D-01 0.650D-01 0.967D+00
 Gap=     0.328 Goal=   None    Shift=    0.000
 RMSDP=5.47D-05 MaxDP=6.31D-04 DE=-1.02D-03 OVMax= 7.85D-04

 Cycle   6  Pass 0  IDiag  1:
 E= -114.492228968790     Delta-E=       -0.000006918754 Rises=F Damp=F
 DIIS: error= 5.15D-05 at cycle   6 NSaved=   6.
 NSaved= 6 IEnMin= 6 EnMin= -114.492228968790     IErMin= 6 ErrMin= 5.15D-05
 ErrMax= 5.15D-05  0.00D+00 EMaxC= 1.00D-01 BMatC= 8.69D-08 BMatP= 8.94D-06
 IDIUse=1 WtCom= 1.00D+00 WtEn= 0.00D+00
 Coeff-Com:  0.154D-02-0.339D-02-0.688D-02-0.105D-01 0.214D-01 0.998D+00
 Coeff:      0.154D-02-0.339D-02-0.688D-02-0.105D-01 0.214D-01 0.998D+00
 Gap=     0.328 Goal=   None    Shift=    0.000
 RMSDP=1.34D-05 MaxDP=1.59D-04 DE=-6.92D-06 OVMax= 1.47D-04

 Cycle   7  Pass 0  IDiag  1:
 E= -114.492229059048     Delta-E=       -0.000000090258 Rises=F Damp=F
 DIIS: error= 4.34D-06 at cycle   7 NSaved=   7.
 NSaved= 7 IEnMin= 7 EnMin= -114.492229059048     IErMin= 7 ErrMin= 4.34D-06
 ErrMax= 4.34D-06  0.00D+00 EMaxC= 1.00D-01 BMatC= 5.40D-10 BMatP= 8.69D-08
 IDIUse=1 WtCom= 1.00D+00 WtEn= 0.00D+00
 Coeff-Com: -0.338D-03 0.729D-03 0.624D-03-0.135D-02-0.250D-01-0.700D-01
 Coeff-Com:  0.110D+01
 Coeff:     -0.338D-03 0.729D-03 0.624D-03-0.135D-02-0.250D-01-0.700D-01
 Coeff:      0.110D+01
 Gap=     0.328 Goal=   None    Shift=    0.000
 RMSDP=2.41D-06 MaxDP=2.74D-05 DE=-9.03D-08 OVMax= 2.77D-05

 Initial convergence to 1.0D-05 achieved.  Increase integral accuracy.
 Cycle   8  Pass 1  IDiag  1:
 E= -114.492229737545     Delta-E=       -0.000000678497 Rises=F Damp=F
 DIIS: error= 1.36D-06 at cycle   1 NSaved=   1.
 NSaved= 1 IEnMin= 1 EnMin= -114.492229737545     IErMin= 1 ErrMin= 1.36D-06
 ErrMax= 1.36D-06  0.00D+00 EMaxC= 1.00D-01 BMatC= 7.16D-11 BMatP= 7.16D-11
 IDIUse=1 WtCom= 1.00D+00 WtEn= 0.00D+00
 Coeff-Com:  0.100D+01
 Coeff:      0.100D+01
 Gap=     0.328 Goal=   None    Shift=    0.000
 RMSDP=2.41D-06 MaxDP=2.74D-05 DE=-6.78D-07 OVMax= 3.99D-06

 Cycle   9  Pass 1  IDiag  1:
 E= -114.492229737575     Delta-E=       -0.000000000029 Rises=F Damp=F
 DIIS: error= 1.74D-06 at cycle   2 NSaved=   2.
 NSaved= 2 IEnMin= 2 EnMin= -114.492229737575     IErMin= 1 ErrMin= 1.36D-06
 ErrMax= 1.74D-06  0.00D+00 EMaxC= 1.00D-01 BMatC= 7.24D-11 BMatP= 7.16D-11
 IDIUse=1 WtCom= 1.00D+00 WtEn= 0.00D+00
 Coeff-Com:  0.502D+00 0.498D+00
 Coeff:      0.502D+00 0.498D+00
 Gap=     0.328 Goal=   None    Shift=    0.000
 RMSDP=1.10D-07 MaxDP=1.56D-06 DE=-2.94D-11 OVMax= 4.88D-06

 Cycle  10  Pass 1  IDiag  1:
 E= -114.492229737626     Delta-E=       -0.000000000052 Rises=F Damp=F
 DIIS: error= 5.82D-07 at cycle   3 NSaved=   3.
 NSaved= 3 IEnMin= 3 EnMin= -114.492229737626     IErMin= 3 ErrMin= 5.82D-07
 ErrMax= 5.82D-07  0.00D+00 EMaxC= 1.00D-01 BMatC= 1.42D-11 BMatP= 7.16D-11
 IDIUse=1 WtCom= 1.00D+00 WtEn= 0.00D+00
 Coeff-Com:  0.522D-02 0.298D+00 0.697D+00
 Coeff:      0.522D-02 0.298D+00 0.697D+00
 Gap=     0.328 Goal=   None    Shift=    0.000
 RMSDP=6.22D-08 MaxDP=5.01D-07 DE=-5.16D-11 OVMax= 1.05D-06

 Cycle  11  Pass 1  IDiag  1:
 E= -114.492229737636     Delta-E=       -0.000000000010 Rises=F Damp=F
 DIIS: error= 1.47D-07 at cycle   4 NSaved=   4.
 NSaved= 4 IEnMin= 4 EnMin= -114.492229737636     IErMin= 4 ErrMin= 1.47D-07
 ErrMax= 1.47D-07  0.00D+00 EMaxC= 1.00D-01 BMatC= 6.87D-13 BMatP= 1.42D-11
 IDIUse=1 WtCom= 1.00D+00 WtEn= 0.00D+00
 Coeff-Com: -0.739D-01 0.760D-01 0.211D+00 0.787D+00
 Coeff:     -0.739D-01 0.760D-01 0.211D+00 0.787D+00
 Gap=     0.328 Goal=   None    Shift=    0.000
 RMSDP=1.73D-08 MaxDP=1.67D-07 DE=-9.55D-12 OVMax= 3.00D-07

 Cycle  12  Pass 1  IDiag  1:
 E= -114.492229737637     Delta-E=       -0.000000000001 Rises=F Damp=F
 DIIS: error= 1.56D-08 at cycle   5 NSaved=   5.
 NSaved= 5 IEnMin= 5 EnMin= -114.492229737637     IErMin= 5 ErrMin= 1.56D-08
 ErrMax= 1.56D-08  0.00D+00 EMaxC= 1.00D-01 BMatC= 1.52D-14 BMatP= 6.87D-13
 IDIUse=1 WtCom= 1.00D+00 WtEn= 0.00D+00
 Coeff-Com: -0.214D-02-0.864D-02-0.398D-01-0.391D-01 0.109D+01
 Coeff:     -0.214D-02-0.864D-02-0.398D-01-0.391D-01 0.109D+01
 Gap=     0.328 Goal=   None    Shift=    0.000
 RMSDP=6.51D-09 MaxDP=6.30D-08 DE=-8.53D-13 OVMax= 8.91D-08

 SCF Done:  E(RCAM-B3LYP) =  -114.492229738     A.U. after   12 cycles
            NFock= 12  Conv=0.65D-08     -V/T= 2.0046
 KE= 1.139632583266D+02 PE=-3.301463896657D+02 EE= 7.109160702434D+01
 Leave Link  502 at Mon Feb 26 13:53:17 2024, MaxMem= 14763950080 cpu:               7.7 elap:               0.3
 (Enter /apps/gaussian/g16-c01-avx2/g16/l601.exe)
 Copying SCF densities to generalized density rwf, IOpCl= 0 IROHF=0.

 **********************************************************************

            Population analysis using the SCF Density.

 **********************************************************************

 Orbital symmetries:
       Occupied  (A1) (A1) (A1) (A1) (B2) (A1) (B1) (B2)
       Virtual   (B1) (A1) (A1) (B2) (A1) (B1) (B2) (A1) (A1) (B2)
                 (A1) (B1) (B2) (A1) (A2) (A1) (B2) (A1) (B1) (B1)
                 (B2) (A1) (B2) (B1) (A1) (A2) (A1) (B2) (A1) (B1)
                 (A1) (B2) (A2) (A1) (A1) (B2) (B1) (A1) (B2) (A1)
                 (A1) (A1)
 The electronic state is 1-A1.
 Alpha  occ. eigenvalues --  -19.22200 -10.35172  -1.12221  -0.73252  -0.58132
 Alpha  occ. eigenvalues --   -0.51892  -0.45750  -0.34585
 Alpha virt. eigenvalues --   -0.01737   0.09854   0.14714   0.15165   0.23621
 Alpha virt. eigenvalues --    0.25105   0.30704   0.45696   0.49336   0.51492
 Alpha virt. eigenvalues --    0.53150   0.55833   0.66323   0.77727   1.21638
 Alpha virt. eigenvalues --    1.28883   1.32328   1.32740   1.38609   1.52674
 Alpha virt. eigenvalues --    1.68940   1.78884   1.81636   2.00751   2.14937
 Alpha virt. eigenvalues --    2.20574   2.26320   2.52306   2.53499   2.66423
 Alpha virt. eigenvalues --    2.70738   2.74018   2.75756   2.82490   3.01928
 Alpha virt. eigenvalues --    3.06674   3.17966   3.26502   3.52399   4.13399
 Alpha virt. eigenvalues --   21.91240  43.32091
          Condensed to atoms (all electrons):
               1          2          3          4
     1  C    4.655657   0.363283   0.363283   0.525833
     2  H    0.363283   0.721165  -0.114769  -0.069300
     3  H    0.363283  -0.114769   0.721165  -0.069300
     4  O    0.525833  -0.069300  -0.069300   7.903956
 Mulliken charges:
               1
     1  C    0.091945
     2  H    0.099622
     3  H    0.099622
     4  O   -0.291189
 Sum of Mulliken charges =  -0.00000
 Mulliken charges with hydrogens summed into heavy atoms:
               1
     1  C    0.291189
     4  O   -0.291189
 Electronic spatial extent (au):  <R**2>=             61.8154
 Charge=             -0.0000 electrons
 Dipole moment (field-independent basis, Debye):
    X=              0.0000    Y=              0.0000    Z=             -2.7506  Tot=              2.7506
 Quadrupole moment (field-independent basis, Debye-Ang):
   XX=            -11.8076   YY=            -11.5295   ZZ=            -12.2597
   XY=              0.0000   XZ=             -0.0000   YZ=             -0.0000
 Traceless Quadrupole moment (field-independent basis, Debye-Ang):
   XX=              0.0580   YY=              0.3361   ZZ=             -0.3941
   XY=              0.0000   XZ=             -0.0000   YZ=             -0.0000
 Octapole moment (field-independent basis, Debye-Ang**2):
  XXX=             -0.0000  YYY=             -0.0000  ZZZ=             -0.0306  XYY=             -0.0000
  XXY=             -0.0000  XXZ=              0.5782  XZZ=             -0.0000  YZZ=             -0.0000
  YYZ=             -0.8282  XYZ=             -0.0000
 Hexadecapole moment (field-independent basis, Debye-Ang**3):
 XXXX=            -10.7525 YYYY=            -17.8903 ZZZZ=            -47.5045 XXXY=             -0.0000
 XXXZ=              0.0000 YYYX=             -0.0000 YYYZ=             -0.0000 ZZZX=              0.0000
 ZZZY=             -0.0000 XXYY=             -5.0849 XXZZ=             -9.6936 YYZZ=            -10.4898
 XXYZ=              0.0000 YYXZ=              0.0000 ZZXY=             -0.0000
 N-N= 3.059929457712D+01 E-N=-3.301463899747D+02  KE= 1.139632583266D+02
 Symmetry A1   KE= 1.034675548419D+02
 Symmetry A2   KE= 5.447476307410D-34
 Symmetry B1   KE= 3.622408137550D+00
 Symmetry B2   KE= 6.873295347188D+00
 No NMR shielding tensors so no spin-rotation constants.
 Leave Link  601 at Mon Feb 26 13:53:18 2024, MaxMem= 14763950080 cpu:               1.8 elap:               0.2
 (Enter /apps/gaussian/g16-c01-avx2/g16/l701.exe)
 ... and contract with generalized density number  0.
 Compute integral first derivatives.
 Leave Link  701 at Mon Feb 26 13:53:18 2024, MaxMem= 14763950080 cpu:               2.3 elap:               0.1
 (Enter /apps/gaussian/g16-c01-avx2/g16/l702.exe)
 L702 exits ... SP integral derivatives will be done elsewhere.
 Leave Link  702 at Mon Feb 26 13:53:19 2024, MaxMem= 14763950080 cpu:               0.3 elap:               0.0
 (Enter /apps/gaussian/g16-c01-avx2/g16/l703.exe)
 Integral derivatives from FoFJK, PRISM(SPDF).
 Compute integral first derivatives, UseDBF=F ICtDFT=           0.
 Calling FoFJK, ICntrl=      2127 FMM=F ISym2X=1 I1Cent= 0 IOpClX= 0 NMat=1 NMatS=1 NMatT=0.
 FoFJK:  IHMeth= 1 ICntrl=    2127 DoSepK=T KAlg= 0 I1Cent=           0 FoldK=F
 IRaf=         1 NMat=       1 IRICut=       1 DoRegI=T DoRafI=F ISym2E= 1 IDoP0=0 IntGTp=1.
 FoFCou: FMM=F IPFlag=           0 FMFlag=      100000 FMFlg1=         800
         NFxFlg=           0 DoJE=F BraDBF=F KetDBF=F FulRan=T
         wScrn=  0.000000 ICntrl=      2527 IOpCl=  0 I1Cent=           0 NGrid=           0
         NMat0=    1 NMatS0=      1 NMatT0=    0 NMatD0=    1 NMtDS0=    0 NMtDT0=    0
 Petite list used in FoFCou.
 Leave Link  703 at Mon Feb 26 13:53:20 2024, MaxMem= 14763950080 cpu:               6.2 elap:               0.2
 (Enter /apps/gaussian/g16-c01-avx2/g16/l716.exe)
 Dipole        = 1.17694327D-17 2.83362929D-16-1.08216016D+00
 ***** Axes restored to original set *****
 -------------------------------------------------------------------
 Center     Atomic                   Forces (Hartrees/Bohr)
 Number     Number              X              Y              Z
 -------------------------------------------------------------------
      1        6           0.051118024    0.088576227   -0.000000000
      2        1           0.007425285   -0.017064700    0.000000000
      3        1          -0.018490340   -0.002108592    0.000000000
      4        8          -0.040052970   -0.069402935   -0.000000000
 -------------------------------------------------------------------
 Cartesian Forces:  Max     0.088576227 RMS     0.038267137
 Leave Link  716 at Mon Feb 26 13:53:20 2024, MaxMem= 14763950080 cpu:               0.5 elap:               0.0
 (Enter /apps/gaussian/g16-c01-avx2/g16/l103.exe)

 GradGradGradGradGradGradGradGradGradGradGradGradGradGradGradGradGradGrad
 Berny optimization.
 FormGI is forming the generalized inverse of G from B-inverse, IUseBI=4.
 Internal  Forces:  Max     0.080131191 RMS     0.031885737
 Search for a local minimum.
 Step number   1 out of a maximum of   20
 All quantities printed in internal units (Hartrees-Bohrs-Radians)
 RMS Force = .31886D-01 SwitMx=.10000D-02 MixMth= 1
 Mixed Optimization -- RFO/linear search
 Second derivative matrix not updated -- first step.
 The second derivative matrix:
                          R1        R2        R3        A1        A2
           R1           0.37230
           R2           0.00000   0.37230
           R3           0.00000   0.00000   0.80209
           A1           0.00000   0.00000   0.00000   0.16000
           A2           0.00000   0.00000   0.00000   0.00000   0.16000
           A3           0.00000   0.00000   0.00000   0.00000   0.00000
           D1           0.00000   0.00000   0.00000   0.00000   0.00000
                          A3        D1
           A3           0.16000
           D1           0.00000   0.03565
 ITU=  0
     Eigenvalues ---    0.03565   0.16000   0.16000   0.37230   0.37230
     Eigenvalues ---    0.80209
 RFO step:  Lambda=-9.76994146D-03 EMin= 3.56487693D-02
 Linear search not attempted -- first point.
 Iteration  1 RMS(Cart)=  0.03211808 RMS(Int)=  0.00018476
 Iteration  2 RMS(Cart)=  0.00018469 RMS(Int)=  0.00000002
 Iteration  3 RMS(Cart)=  0.00000002 RMS(Int)=  0.00000000
 ITry= 1 IFail=0 DXMaxC= 4.72D-02 DCOld= 1.00D+10 DXMaxT= 3.00D-01 DXLimC= 3.00D+00 Rises=F
 ClnCor:  largest displacement from symmetrization is 2.77D-09 for atom     1.
 Variable       Old X    -DE/DX   Delta X   Delta X   Delta X     New X
                                 (Linear)    (Quad)   (Total)
    R1        2.02201   0.01849   0.00000   0.04840   0.04840   2.07040
    R2        2.02201   0.01849   0.00000   0.04840   0.04840   2.07040
    R3        2.37803  -0.08013   0.00000  -0.09870  -0.09870   2.27933
    A1        2.09440  -0.00284   0.00000  -0.01672  -0.01672   2.07768
    A2        2.09440   0.00142   0.00000   0.00836   0.00836   2.10275
    A3        2.09440   0.00142   0.00000   0.00836   0.00836   2.10275
    D1        3.14159   0.00000   0.00000   0.00000   0.00000   3.14159
         Item               Value     Threshold  Converged?
 Maximum Force            0.080131     0.000450     NO 
 RMS     Force            0.031886     0.000300     NO 
 Maximum Displacement     0.047162     0.001800     NO 
 RMS     Displacement     0.032025     0.001200     NO 
 Predicted change in Energy=-4.957490D-03
 Lowest energy point so far.  Saving SCF results.
 GradGradGradGradGradGradGradGradGradGradGradGradGradGradGradGradGradGrad

 Leave Link  103 at Mon Feb 26 13:53:21 2024, MaxMem= 14763950080 cpu:               0.5 elap:               0.0
 (Enter /apps/gaussian/g16-c01-avx2/g16/l202.exe)
                          Input orientation:                          
 ---------------------------------------------------------------------
 Center     Atomic      Atomic             Coordinates (Angstroms)
 Number     Number       Type             X           Y           Z
 ---------------------------------------------------------------------
      1          6           0       -0.510564   -0.383932   -0.000000
      2          1           0        0.029465   -1.337206   -0.000000
      3          1           0       -1.606134   -0.393289   -0.000000
      4          8           0        0.092331    0.660751    0.000000
 ---------------------------------------------------------------------
                    Distance matrix (angstroms):
                    1          2          3          4
     1  C    0.000000
     2  H    1.095610   0.000000
     3  H    1.095610   1.888429   0.000000
     4  O    1.206170   1.998945   1.998945   0.000000
 Stoichiometry    CH2O
 Framework group  C2V[C2(CO),SGV(H2)]
 Deg. of freedom     3
 Full point group                 C2V     NOp   4
 RotChk:  IX=3 Diff= 7.15D-16
 Largest Abelian subgroup         C2V     NOp   4
 Largest concise Abelian subgroup C2      NOp   2
                         Standard orientation:                         
 ---------------------------------------------------------------------
 Center     Atomic      Atomic             Coordinates (Angstroms)
 Number     Number       Type             X           Y           Z
 ---------------------------------------------------------------------
      1          6           0       -0.000000    0.000000   -0.533620
      2          1           0       -0.000000   -0.944215   -1.089336
      3          1           0        0.000000    0.944215   -1.089336
      4          8           0        0.000000   -0.000000    0.672549
 ---------------------------------------------------------------------
 Rotational constants (GHZ):         281.2293805          39.2114978          34.4132911
 Leave Link  202 at Mon Feb 26 13:53:21 2024, MaxMem= 14763950080 cpu:               0.5 elap:               0.0
 (Enter /apps/gaussian/g16-c01-avx2/g16/l301.exe)
 Standard basis: TZVP (5D, 7F)
 Ernie: Thresh=  0.10000D-02 Tol=  0.10000D-05 Strict=F.
 There are    27 symmetry adapted cartesian basis functions of A1  symmetry.
 There are     3 symmetry adapted cartesian basis functions of A2  symmetry.
 There are     9 symmetry adapted cartesian basis functions of B1  symmetry.
 There are    13 symmetry adapted cartesian basis functions of B2  symmetry.
 There are    25 symmetry adapted basis functions of A1  symmetry.
 There are     3 symmetry adapted basis functions of A2  symmetry.
 There are     9 symmetry adapted basis functions of B1  symmetry.
 There are    13 symmetry adapted basis functions of B2  symmetry.
    50 basis functions,    86 primitive gaussians,    52 cartesian basis functions
     8 alpha electrons        8 beta electrons
       nuclear repulsion energy        31.3706621106 Hartrees.
 IExCor=20419 DFT=T Ex+Corr=CAM-B3LYP ExCW=0 ScaHFX=  1.000000
 ScaDFX=  1.000000  1.000000  1.000000  0.810000 ScalE2=  1.000000  1.000000
 IRadAn=      5 IRanWt=     -1 IRanGd=            0 ICorTp=0 IEmpDi=  4
 HFx  wShort=  0.000000 wLong=  0.330000 cFull=  0.190000 cShort=  0.000000 cLong=  0.460000
 DFx  wShort=  0.000000 wLong=  0.330000 cFull=  0.190000 cShort=  0.000000 cLong=  0.460000
 NAtoms=    4 NActive=    4 NUniq=    3 SFac= 1.78D+00 NAtFMM=   60 NAOKFM=F Big=F
 Integral buffers will be    131072 words long.
 Raffenetti 2 integral format.
 Two-electron integral symmetry is turned on.
 Leave Link  301 at Mon Feb 26 13:53:21 2024, MaxMem= 14763950080 cpu:               0.9 elap:               0.0
 (Enter /apps/gaussian/g16-c01-avx2/g16/l302.exe)
 NPDir=0 NMtPBC=     1 NCelOv=     1 NCel=       1 NClECP=     1 NCelD=      1
         NCelK=      1 NCelE2=     1 NClLst=     1 CellRange=     0.0.
 One-electron integrals computed using PRISM.
 One-electron integral symmetry used in STVInt
 NBasis=    50 RedAO= T EigKep=  5.41D-03  NBF=    25     3     9    13
 NBsUse=    50 1.00D-06 EigRej= -1.00D+00 NBFU=    25     3     9    13
 Precomputing XC quadrature grid using
 IXCGrd= 4 IRadAn=           5 IRanWt=          -1 IRanGd=           0 AccXCQ= 0.00D+00.
 Generated NRdTot=       0 NPtTot=           0 NUsed=           0 NTot=          32
 NSgBfM=    52    52    52    52    52 MxSgAt=     4 MxSgA2=     4.
 Leave Link  302 at Mon Feb 26 13:53:21 2024, MaxMem= 14763950080 cpu:               2.3 elap:               0.1
 (Enter /apps/gaussian/g16-c01-avx2/g16/l303.exe)
 DipDrv:  MaxL=1.
 Leave Link  303 at Mon Feb 26 13:53:23 2024, MaxMem= 14763950080 cpu:               0.4 elap:               0.0
 (Enter /apps/gaussian/g16-c01-avx2/g16/l401.exe)
 Initial guess from the checkpoint file:  "CAM-B3LYP_job1.chk"
 B after Tr=     0.000000   -0.000000    0.000000
         Rot=    1.000000   -0.000000    0.000000    0.000000 Ang=   0.00 deg.
 Guess basis will be translated and rotated to current coordinates.
 JPrj=2 DoOrth=T DoCkMO=T.
 Initial guess orbital symmetries:
       Occupied  (A1) (A1) (A1) (A1) (B2) (A1) (B1) (B2)
       Virtual   (B1) (A1) (A1) (B2) (A1) (B1) (B2) (A1) (A1) (B2)
                 (A1) (B1) (B2) (A1) (A2) (A1) (B2) (A1) (B1) (B1)
                 (B2) (A1) (B2) (B1) (A1) (A2) (A1) (B2) (A1) (B1)
                 (A1) (B2) (A2) (A1) (A1) (B2) (B1) (A1) (B2) (A1)
                 (A1) (A1)
 The electronic state of the initial guess is 1-A1.
 Generating alternative initial guess.
 ExpMin= 9.52D-02 ExpMax= 2.70D+04 ExpMxC= 9.22D+02 IAcc=3 IRadAn=         5 AccDes= 0.00D+00
 Harris functional with IExCor=20419 and IRadAn=       5 diagonalized for initial guess.
 HarFok:  IExCor=20419 AccDes= 0.00D+00 IRadAn=         5 IDoV= 1 UseB2=F ITyADJ=14
 ICtDFT=  3500011 ScaDFX=  1.000000  1.000000  1.000000  1.000000
 FoFCou: FMM=F IPFlag=           0 FMFlag=      100000 FMFlg1=           0
         NFxFlg=           0 DoJE=T BraDBF=F KetDBF=T FulRan=T
         wScrn=  0.000000 ICntrl=       500 IOpCl=  0 I1Cent=   200000004 NGrid=           0
         NMat0=    1 NMatS0=      1 NMatT0=    0 NMatD0=    1 NMtDS0=    0 NMtDT0=    0
 Petite list used in FoFCou.
 Harris En= -110.515314931438    
 Leave Link  401 at Mon Feb 26 13:53:23 2024, MaxMem= 14763950080 cpu:               4.0 elap:               0.1
 (Enter /apps/gaussian/g16-c01-avx2/g16/l502.exe)
 Keep R1 ints in memory in symmetry-blocked form, NReq=29755384.
 FoFCou: FMM=F IPFlag=           0 FMFlag=           0 FMFlg1=           0
         NFxFlg=           0 DoJE=F BraDBF=F KetDBF=F FulRan=T
         wScrn=  0.000000 ICntrl=       600 IOpCl=  0 I1Cent=           0 NGrid=           0
         NMat0=    1 NMatS0=   1275 NMatT0=    0 NMatD0=    1 NMtDS0=    0 NMtDT0=    0
 Petite list used in FoFCou.
 Closed shell SCF:
 Using DIIS extrapolation, IDIIS=  1040.
 NGot= 14763950080 LenX= 14763712828 LenY= 14763709683
 Requested convergence on RMS density matrix=1.00D-08 within 128 cycles.
 Requested convergence on MAX density matrix=1.00D-06.
 Requested convergence on             energy=1.00D-06.
 No special actions if energy rises.
 Integral accuracy reduced to 1.0D-05 until final iterations.

 Cycle   1  Pass 0  IDiag  1:
 E= -114.495978262182    
 DIIS: error= 5.90D-03 at cycle   1 NSaved=   1.
 NSaved= 1 IEnMin= 1 EnMin= -114.495978262182     IErMin= 1 ErrMin= 5.90D-03
 ErrMax= 5.90D-03  0.00D+00 EMaxC= 1.00D-01 BMatC= 2.19D-03 BMatP= 2.19D-03
 IDIUse=3 WtCom= 9.41D-01 WtEn= 5.90D-02
 Coeff-Com:  0.100D+01
 Coeff-En:   0.100D+01
 Coeff:      0.100D+01
 Gap=     0.344 Goal=   None    Shift=    0.000
 GapD=    0.344 DampG=1.000 DampE=1.000 DampFc=1.0000 IDamp=-1.
 RMSDP=7.89D-04 MaxDP=7.58D-03              OVMax= 1.65D-02

 Cycle   2  Pass 0  IDiag  1:
 E= -114.497759715012     Delta-E=       -0.001781452830 Rises=F Damp=F
 DIIS: error= 3.46D-03 at cycle   2 NSaved=   2.
 NSaved= 2 IEnMin= 2 EnMin= -114.497759715012     IErMin= 2 ErrMin= 3.46D-03
 ErrMax= 3.46D-03  0.00D+00 EMaxC= 1.00D-01 BMatC= 5.52D-04 BMatP= 2.19D-03
 IDIUse=3 WtCom= 9.65D-01 WtEn= 3.46D-02
 Coeff-Com:  0.251D+00 0.749D+00
 Coeff-En:   0.000D+00 0.100D+01
 Coeff:      0.242D+00 0.758D+00
 Gap=     0.336 Goal=   None    Shift=    0.000
 RMSDP=4.91D-04 MaxDP=5.07D-03 DE=-1.78D-03 OVMax= 1.28D-02

 Cycle   3  Pass 0  IDiag  1:
 E= -114.497830911747     Delta-E=       -0.000071196735 Rises=F Damp=F
 DIIS: error= 3.74D-03 at cycle   3 NSaved=   3.
 NSaved= 3 IEnMin= 3 EnMin= -114.497830911747     IErMin= 2 ErrMin= 3.46D-03
 ErrMax= 3.74D-03  0.00D+00 EMaxC= 1.00D-01 BMatC= 4.63D-04 BMatP= 5.52D-04
 IDIUse=3 WtCom= 9.63D-01 WtEn= 3.74D-02
 Coeff-Com: -0.209D-01 0.480D+00 0.541D+00
 Coeff-En:   0.000D+00 0.453D+00 0.547D+00
 Coeff:     -0.201D-01 0.479D+00 0.541D+00
 Gap=     0.339 Goal=   None    Shift=    0.000
 RMSDP=2.52D-04 MaxDP=2.91D-03 DE=-7.12D-05 OVMax= 8.09D-03

 Cycle   4  Pass 0  IDiag  1:
 E= -114.498142962180     Delta-E=       -0.000312050433 Rises=F Damp=F
 DIIS: error= 4.97D-04 at cycle   4 NSaved=   4.
 NSaved= 4 IEnMin= 4 EnMin= -114.498142962180     IErMin= 4 ErrMin= 4.97D-04
 ErrMax= 4.97D-04  0.00D+00 EMaxC= 1.00D-01 BMatC= 9.39D-06 BMatP= 4.63D-04
 IDIUse=3 WtCom= 9.95D-01 WtEn= 4.97D-03
 Coeff-Com: -0.227D-01 0.103D+00 0.196D+00 0.724D+00
 Coeff-En:   0.000D+00 0.000D+00 0.000D+00 0.100D+01
 Coeff:     -0.226D-01 0.102D+00 0.195D+00 0.726D+00
 Gap=     0.339 Goal=   None    Shift=    0.000
 RMSDP=3.86D-05 MaxDP=4.68D-04 DE=-3.12D-04 OVMax= 1.09D-03

 Cycle   5  Pass 0  IDiag  1:
 E= -114.498150765572     Delta-E=       -0.000007803392 Rises=F Damp=F
 DIIS: error= 9.44D-05 at cycle   5 NSaved=   5.
 NSaved= 5 IEnMin= 5 EnMin= -114.498150765572     IErMin= 5 ErrMin= 9.44D-05
 ErrMax= 9.44D-05  0.00D+00 EMaxC= 1.00D-01 BMatC= 2.94D-07 BMatP= 9.39D-06
 IDIUse=1 WtCom= 1.00D+00 WtEn= 0.00D+00
 Coeff-Com: -0.841D-03-0.216D-01-0.405D-02 0.145D+00 0.882D+00
 Coeff:     -0.841D-03-0.216D-01-0.405D-02 0.145D+00 0.882D+00
 Gap=     0.339 Goal=   None    Shift=    0.000
 RMSDP=1.56D-05 MaxDP=1.62D-04 DE=-7.80D-06 OVMax= 3.94D-04

 Cycle   6  Pass 0  IDiag  1:
 E= -114.498151160468     Delta-E=       -0.000000394896 Rises=F Damp=F
 DIIS: error= 1.28D-05 at cycle   6 NSaved=   6.
 NSaved= 6 IEnMin= 6 EnMin= -114.498151160468     IErMin= 6 ErrMin= 1.28D-05
 ErrMax= 1.28D-05  0.00D+00 EMaxC= 1.00D-01 BMatC= 7.51D-09 BMatP= 2.94D-07
 IDIUse=1 WtCom= 1.00D+00 WtEn= 0.00D+00
 Coeff-Com:  0.848D-03-0.758D-02-0.101D-01-0.269D-01 0.846D-01 0.959D+00
 Coeff:      0.848D-03-0.758D-02-0.101D-01-0.269D-01 0.846D-01 0.959D+00
 Gap=     0.339 Goal=   None    Shift=    0.000
 RMSDP=3.39D-06 MaxDP=3.15D-05 DE=-3.95D-07 OVMax= 7.82D-05

 Initial convergence to 1.0D-05 achieved.  Increase integral accuracy.
 Cycle   7  Pass 1  IDiag  1:
 E= -114.498150903179     Delta-E=        0.000000257289 Rises=F Damp=F
 DIIS: error= 1.59D-06 at cycle   1 NSaved=   1.
 NSaved= 1 IEnMin= 1 EnMin= -114.498150903179     IErMin= 1 ErrMin= 1.59D-06
 ErrMax= 1.59D-06  0.00D+00 EMaxC= 1.00D-01 BMatC= 8.19D-11 BMatP= 8.19D-11
 IDIUse=1 WtCom= 1.00D+00 WtEn= 0.00D+00
 Coeff-Com:  0.100D+01
 Coeff:      0.100D+01
 Gap=     0.339 Goal=   None    Shift=    0.000
 RMSDP=3.39D-06 MaxDP=3.15D-05 DE= 2.57D-07 OVMax= 8.77D-06

 Cycle   8  Pass 1  IDiag  1:
 E= -114.498150903409     Delta-E=       -0.000000000230 Rises=F Damp=F
 DIIS: error= 5.97D-07 at cycle   2 NSaved=   2.
 NSaved= 2 IEnMin= 2 EnMin= -114.498150903409     IErMin= 2 ErrMin= 5.97D-07
 ErrMax= 5.97D-07  0.00D+00 EMaxC= 1.00D-01 BMatC= 1.61D-11 BMatP= 8.19D-11
 IDIUse=1 WtCom= 1.00D+00 WtEn= 0.00D+00
 Coeff-Com:  0.109D+00 0.891D+00
 Coeff:      0.109D+00 0.891D+00
 Gap=     0.339 Goal=   None    Shift=    0.000
 RMSDP=2.66D-07 MaxDP=2.78D-06 DE=-2.30D-10 OVMax= 3.53D-06

 Cycle   9  Pass 1  IDiag  1:
 E= -114.498150903425     Delta-E=       -0.000000000016 Rises=F Damp=F
 DIIS: error= 7.86D-07 at cycle   3 NSaved=   3.
 NSaved= 3 IEnMin= 3 EnMin= -114.498150903425     IErMin= 2 ErrMin= 5.97D-07
 ErrMax= 7.86D-07  0.00D+00 EMaxC= 1.00D-01 BMatC= 1.39D-11 BMatP= 1.61D-11
 IDIUse=1 WtCom= 1.00D+00 WtEn= 0.00D+00
 Coeff-Com: -0.103D+00 0.518D+00 0.584D+00
 Coeff:     -0.103D+00 0.518D+00 0.584D+00
 Gap=     0.339 Goal=   None    Shift=    0.000
 RMSDP=6.57D-08 MaxDP=7.67D-07 DE=-1.57D-11 OVMax= 2.24D-06

 Cycle  10  Pass 1  IDiag  1:
 E= -114.498150903436     Delta-E=       -0.000000000011 Rises=F Damp=F
 DIIS: error= 1.99D-07 at cycle   4 NSaved=   4.
 NSaved= 4 IEnMin= 4 EnMin= -114.498150903436     IErMin= 4 ErrMin= 1.99D-07
 ErrMax= 1.99D-07  0.00D+00 EMaxC= 1.00D-01 BMatC= 1.48D-12 BMatP= 1.39D-11
 IDIUse=1 WtCom= 1.00D+00 WtEn= 0.00D+00
 Coeff-Com: -0.723D-01 0.929D-01 0.292D+00 0.688D+00
 Coeff:     -0.723D-01 0.929D-01 0.292D+00 0.688D+00
 Gap=     0.339 Goal=   None    Shift=    0.000
 RMSDP=3.42D-08 MaxDP=3.28D-07 DE=-1.13D-11 OVMax= 4.18D-07

 Cycle  11  Pass 1  IDiag  1:
 E= -114.498150903437     Delta-E=       -0.000000000001 Rises=F Damp=F
 DIIS: error= 2.45D-08 at cycle   5 NSaved=   5.
 NSaved= 5 IEnMin= 5 EnMin= -114.498150903437     IErMin= 5 ErrMin= 2.45D-08
 ErrMax= 2.45D-08  0.00D+00 EMaxC= 1.00D-01 BMatC= 2.63D-14 BMatP= 1.48D-12
 IDIUse=1 WtCom= 1.00D+00 WtEn= 0.00D+00
 Coeff-Com: -0.457D-02-0.224D-01 0.298D-01 0.141D+00 0.856D+00
 Coeff:     -0.457D-02-0.224D-01 0.298D-01 0.141D+00 0.856D+00
 Gap=     0.339 Goal=   None    Shift=    0.000
 RMSDP=3.88D-09 MaxDP=3.46D-08 DE=-1.02D-12 OVMax= 1.09D-07

 SCF Done:  E(RCAM-B3LYP) =  -114.498150903     A.U. after   11 cycles
            NFock= 11  Conv=0.39D-08     -V/T= 2.0037
 KE= 1.140721793629D+02 PE=-3.317346828314D+02 EE= 7.179369045439D+01
 Leave Link  502 at Mon Feb 26 13:53:23 2024, MaxMem= 14763950080 cpu:               6.4 elap:               0.2
 (Enter /apps/gaussian/g16-c01-avx2/g16/l701.exe)
 ... and contract with generalized density number  0.
 Compute integral first derivatives.
 Leave Link  701 at Mon Feb 26 13:53:23 2024, MaxMem= 14763950080 cpu:               2.4 elap:               0.1
 (Enter /apps/gaussian/g16-c01-avx2/g16/l702.exe)
 L702 exits ... SP integral derivatives will be done elsewhere.
 Leave Link  702 at Mon Feb 26 13:53:23 2024, MaxMem= 14763950080 cpu:               0.3 elap:               0.0
 (Enter /apps/gaussian/g16-c01-avx2/g16/l703.exe)
 Integral derivatives from FoFJK, PRISM(SPDF).
 Compute integral first derivatives, UseDBF=F ICtDFT=           0.
 Calling FoFJK, ICntrl=      2127 FMM=F ISym2X=1 I1Cent= 0 IOpClX= 0 NMat=1 NMatS=1 NMatT=0.
 FoFJK:  IHMeth= 1 ICntrl=    2127 DoSepK=T KAlg= 0 I1Cent=           0 FoldK=F
 IRaf=         1 NMat=       1 IRICut=       1 DoRegI=T DoRafI=F ISym2E= 1 IDoP0=0 IntGTp=1.
 FoFCou: FMM=F IPFlag=           0 FMFlag=      100000 FMFlg1=         800
         NFxFlg=           0 DoJE=F BraDBF=F KetDBF=F FulRan=T
         wScrn=  0.000000 ICntrl=      2527 IOpCl=  0 I1Cent=           0 NGrid=           0
         NMat0=    1 NMatS0=      1 NMatT0=    0 NMatD0=    1 NMtDS0=    0 NMtDT0=    0
 Petite list used in FoFCou.
 Leave Link  703 at Mon Feb 26 13:53:24 2024, MaxMem= 14763950080 cpu:               6.0 elap:               0.2
 (Enter /apps/gaussian/g16-c01-avx2/g16/l716.exe)
 Dipole        = 8.91501189D-18-4.03678413D-16-9.86581425D-01
 ***** Axes restored to original set *****
 -------------------------------------------------------------------
 Center     Atomic                   Forces (Hartrees/Bohr)
 Number     Number              X              Y              Z
 -------------------------------------------------------------------
      1        6           0.011516509    0.019955563   -0.000000000
      2        1          -0.001122880   -0.005870843    0.000000000
      3        1          -0.004521437   -0.003909510    0.000000000
      4        8          -0.005872192   -0.010175210   -0.000000000
 -------------------------------------------------------------------
 Cartesian Forces:  Max     0.019955563 RMS     0.007854549
 Leave Link  716 at Mon Feb 26 13:53:24 2024, MaxMem= 14763950080 cpu:               0.3 elap:               0.0
 (Enter /apps/gaussian/g16-c01-avx2/g16/l103.exe)

 GradGradGradGradGradGradGradGradGradGradGradGradGradGradGradGradGradGrad
 Berny optimization.
 Using GEDIIS/GDIIS optimizer.
 FormGI is forming the generalized inverse of G from B-inverse, IUseBI=4.
 Internal  Forces:  Max     0.011748087 RMS     0.005635649
 Search for a local minimum.
 Step number   2 out of a maximum of   20
 All quantities printed in internal units (Hartrees-Bohrs-Radians)
 RMS Force = .56356D-02 SwitMx=.10000D-02 MixMth= 1
 Mixed Optimization -- RFO/linear search
 Update second derivatives using D2CorX and points    1    2
 DE= -5.92D-03 DEPred=-4.96D-03 R= 1.19D+00
 TightC=F SS=  1.41D+00  RLast= 1.22D-01 DXNew= 5.0454D-01 3.6552D-01
 Trust test= 1.19D+00 RLast= 1.22D-01 DXMaxT set to 3.66D-01
 The second derivative matrix:
                          R1        R2        R3        A1        A2
           R1           0.36274
           R2          -0.00956   0.36274
           R3           0.02960   0.02960   0.73287
           A1           0.00935   0.00935  -0.04331   0.16004
           A2          -0.00468  -0.00468   0.02166  -0.00002   0.16001
           A3          -0.00468  -0.00468   0.02166  -0.00002   0.00001
           D1           0.00000   0.00000  -0.00000   0.00000  -0.00000
                          A3        D1
           A3           0.16001
           D1          -0.00000   0.03565
 ITU=  1  0
 Use linear search instead of GDIIS.
     Eigenvalues ---    0.03565   0.15317   0.16000   0.35103   0.37230
     Eigenvalues ---    0.74190
 RFO step:  Lambda=-3.04175936D-04 EMin= 3.56487693D-02
 Quartic linear search produced a step of  0.18701.
 Iteration  1 RMS(Cart)=  0.01375846 RMS(Int)=  0.00023430
 Iteration  2 RMS(Cart)=  0.00024732 RMS(Int)=  0.00000002
 Iteration  3 RMS(Cart)=  0.00000002 RMS(Int)=  0.00000000
 ITry= 1 IFail=0 DXMaxC= 2.18D-02 DCOld= 1.00D+10 DXMaxT= 3.66D-01 DXLimC= 3.00D+00 Rises=F
 ClnCor:  largest displacement from symmetrization is 2.02D-09 for atom     1.
 Variable       Old X    -DE/DX   Delta X   Delta X   Delta X     New X
                                 (Linear)    (Quad)   (Total)
    R1        2.07040   0.00455   0.00905   0.00477   0.01382   2.08422
    R2        2.07040   0.00455   0.00905   0.00477   0.01382   2.08422
    R3        2.27933  -0.01175  -0.01846   0.00002  -0.01844   2.26089
    A1        2.07768  -0.00534  -0.00313  -0.03516  -0.03829   2.03939
    A2        2.10275   0.00267   0.00156   0.01758   0.01914   2.12190
    A3        2.10275   0.00267   0.00156   0.01758   0.01914   2.12190
    D1        3.14159   0.00000   0.00000   0.00000   0.00000   3.14159
         Item               Value     Threshold  Converged?
 Maximum Force            0.011748     0.000450     NO 
 RMS     Force            0.005636     0.000300     NO 
 Maximum Displacement     0.021836     0.001800     NO 
 RMS     Displacement     0.013850     0.001200     NO 
 Predicted change in Energy=-3.571396D-04
 Lowest energy point so far.  Saving SCF results.
 GradGradGradGradGradGradGradGradGradGradGradGradGradGradGradGradGradGrad

 Leave Link  103 at Mon Feb 26 13:53:24 2024, MaxMem= 14763950080 cpu:               0.3 elap:               0.0
 (Enter /apps/gaussian/g16-c01-avx2/g16/l202.exe)
                          Input orientation:                          
 ---------------------------------------------------------------------
 Center     Atomic      Atomic             Coordinates (Angstroms)
 Number     Number       Type             X           Y           Z
 ---------------------------------------------------------------------
      1          6           0       -0.503896   -0.372378    0.000000
      2          1           0        0.021268   -1.342245    0.000000
      3          1           0       -1.606396   -0.402907   -0.000000
      4          8           0        0.094122    0.663854   -0.000000
 ---------------------------------------------------------------------
                    Distance matrix (angstroms):
                    1          2          3          4
     1  C    0.000000
     2  H    1.102923   0.000000
     3  H    1.102923   1.879268   0.000000
     4  O    1.196412   2.007422   2.007422   0.000000
 Stoichiometry    CH2O
 Framework group  C2V[C2(CO),SGV(H2)]
 Deg. of freedom     3
 Full point group                 C2V     NOp   4
 RotChk:  IX=3 Diff= 3.74D-16
 Largest Abelian subgroup         C2V     NOp   4
 Largest concise Abelian subgroup C2      NOp   2
                         Standard orientation:                         
 ---------------------------------------------------------------------
 Center     Atomic      Atomic             Coordinates (Angstroms)
 Number     Number       Type             X           Y           Z
 ---------------------------------------------------------------------
      1          6           0       -0.000000   -0.000000   -0.526016
      2          1           0       -0.000000   -0.939634   -1.103535
      3          1           0        0.000000    0.939634   -1.103535
      4          8           0        0.000000    0.000000    0.670396
 ---------------------------------------------------------------------
 Rotational constants (GHZ):         283.9779709          39.4695894          34.6532028
 Leave Link  202 at Mon Feb 26 13:53:24 2024, MaxMem= 14763950080 cpu:               0.1 elap:               0.0
 (Enter /apps/gaussian/g16-c01-avx2/g16/l301.exe)
 Standard basis: TZVP (5D, 7F)
 Ernie: Thresh=  0.10000D-02 Tol=  0.10000D-05 Strict=F.
 There are    27 symmetry adapted cartesian basis functions of A1  symmetry.
 There are     3 symmetry adapted cartesian basis functions of A2  symmetry.
 There are     9 symmetry adapted cartesian basis functions of B1  symmetry.
 There are    13 symmetry adapted cartesian basis functions of B2  symmetry.
 There are    25 symmetry adapted basis functions of A1  symmetry.
 There are     3 symmetry adapted basis functions of A2  symmetry.
 There are     9 symmetry adapted basis functions of B1  symmetry.
 There are    13 symmetry adapted basis functions of B2  symmetry.
    50 basis functions,    86 primitive gaussians,    52 cartesian basis functions
     8 alpha electrons        8 beta electrons
       nuclear repulsion energy        31.4874685807 Hartrees.
 IExCor=20419 DFT=T Ex+Corr=CAM-B3LYP ExCW=0 ScaHFX=  1.000000
 ScaDFX=  1.000000  1.000000  1.000000  0.810000 ScalE2=  1.000000  1.000000
 IRadAn=      5 IRanWt=     -1 IRanGd=            0 ICorTp=0 IEmpDi=  4
 HFx  wShort=  0.000000 wLong=  0.330000 cFull=  0.190000 cShort=  0.000000 cLong=  0.460000
 DFx  wShort=  0.000000 wLong=  0.330000 cFull=  0.190000 cShort=  0.000000 cLong=  0.460000
 NAtoms=    4 NActive=    4 NUniq=    3 SFac= 1.78D+00 NAtFMM=   60 NAOKFM=F Big=F
 Integral buffers will be    131072 words long.
 Raffenetti 2 integral format.
 Two-electron integral symmetry is turned on.
 Leave Link  301 at Mon Feb 26 13:53:24 2024, MaxMem= 14763950080 cpu:               0.8 elap:               0.0
 (Enter /apps/gaussian/g16-c01-avx2/g16/l302.exe)
 NPDir=0 NMtPBC=     1 NCelOv=     1 NCel=       1 NClECP=     1 NCelD=      1
         NCelK=      1 NCelE2=     1 NClLst=     1 CellRange=     0.0.
 One-electron integrals computed using PRISM.
 One-electron integral symmetry used in STVInt
 NBasis=    50 RedAO= T EigKep=  5.43D-03  NBF=    25     3     9    13
 NBsUse=    50 1.00D-06 EigRej= -1.00D+00 NBFU=    25     3     9    13
 Precomputing XC quadrature grid using
 IXCGrd= 4 IRadAn=           5 IRanWt=          -1 IRanGd=           0 AccXCQ= 0.00D+00.
 Generated NRdTot=       0 NPtTot=           0 NUsed=           0 NTot=          32
 NSgBfM=    52    52    52    52    52 MxSgAt=     4 MxSgA2=     4.
 Leave Link  302 at Mon Feb 26 13:53:24 2024, MaxMem= 14763950080 cpu:               2.0 elap:               0.1
 (Enter /apps/gaussian/g16-c01-avx2/g16/l303.exe)
 DipDrv:  MaxL=1.
 Leave Link  303 at Mon Feb 26 13:53:24 2024, MaxMem= 14763950080 cpu:               0.3 elap:               0.0
 (Enter /apps/gaussian/g16-c01-avx2/g16/l401.exe)
 Initial guess from the checkpoint file:  "CAM-B3LYP_job1.chk"
 B after Tr=    -0.000000    0.000000    0.000000
         Rot=    1.000000   -0.000000   -0.000000   -0.000000 Ang=   0.00 deg.
 Guess basis will be translated and rotated to current coordinates.
 JPrj=2 DoOrth=T DoCkMO=T.
 Initial guess orbital symmetries:
       Occupied  (A1) (A1) (A1) (A1) (B2) (A1) (B1) (B2)
       Virtual   (B1) (A1) (A1) (B2) (A1) (B1) (B2) (A1) (A1) (B2)
                 (B1) (A1) (B2) (A1) (A2) (A1) (B2) (A1) (B1) (B1)
                 (B2) (A1) (B2) (B1) (A1) (A2) (A1) (A1) (B2) (B1)
                 (A1) (B2) (A2) (A1) (A1) (B2) (B1) (A1) (B2) (A1)
                 (A1) (A1)
 The electronic state of the initial guess is 1-A1.
 Generating alternative initial guess.
 ExpMin= 9.52D-02 ExpMax= 2.70D+04 ExpMxC= 9.22D+02 IAcc=3 IRadAn=         5 AccDes= 0.00D+00
 Harris functional with IExCor=20419 and IRadAn=       5 diagonalized for initial guess.
 HarFok:  IExCor=20419 AccDes= 0.00D+00 IRadAn=         5 IDoV= 1 UseB2=F ITyADJ=14
 ICtDFT=  3500011 ScaDFX=  1.000000  1.000000  1.000000  1.000000
 FoFCou: FMM=F IPFlag=           0 FMFlag=      100000 FMFlg1=           0
         NFxFlg=           0 DoJE=T BraDBF=F KetDBF=T FulRan=T
         wScrn=  0.000000 ICntrl=       500 IOpCl=  0 I1Cent=   200000004 NGrid=           0
         NMat0=    1 NMatS0=      1 NMatT0=    0 NMatD0=    1 NMtDS0=    0 NMtDT0=    0
 Petite list used in FoFCou.
 Harris En= -110.514559143811    
 Leave Link  401 at Mon Feb 26 13:53:24 2024, MaxMem= 14763950080 cpu:               3.6 elap:               0.1
 (Enter /apps/gaussian/g16-c01-avx2/g16/l502.exe)
 Keep R1 ints in memory in symmetry-blocked form, NReq=29755384.
 FoFCou: FMM=F IPFlag=           0 FMFlag=           0 FMFlg1=           0
         NFxFlg=           0 DoJE=F BraDBF=F KetDBF=F FulRan=T
         wScrn=  0.000000 ICntrl=       600 IOpCl=  0 I1Cent=           0 NGrid=           0
         NMat0=    1 NMatS0=   1275 NMatT0=    0 NMatD0=    1 NMtDS0=    0 NMtDT0=    0
 Petite list used in FoFCou.
 Closed shell SCF:
 Using DIIS extrapolation, IDIIS=  1040.
 NGot= 14763950080 LenX= 14763712828 LenY= 14763709683
 Requested convergence on RMS density matrix=1.00D-08 within 128 cycles.
 Requested convergence on MAX density matrix=1.00D-06.
 Requested convergence on             energy=1.00D-06.
 No special actions if energy rises.
 Integral accuracy reduced to 1.0D-05 until final iterations.

 Cycle   1  Pass 0  IDiag  1:
 E= -114.498368405465    
 DIIS: error= 1.52D-03 at cycle   1 NSaved=   1.
 NSaved= 1 IEnMin= 1 EnMin= -114.498368405465     IErMin= 1 ErrMin= 1.52D-03
 ErrMax= 1.52D-03  0.00D+00 EMaxC= 1.00D-01 BMatC= 1.39D-04 BMatP= 1.39D-04
 IDIUse=3 WtCom= 9.85D-01 WtEn= 1.52D-02
 Coeff-Com:  0.100D+01
 Coeff-En:   0.100D+01
 Coeff:      0.100D+01
 Gap=     0.342 Goal=   None    Shift=    0.000
 GapD=    0.342 DampG=1.000 DampE=1.000 DampFc=1.0000 IDamp=-1.
 RMSDP=2.20D-04 MaxDP=1.91D-03              OVMax= 5.53D-03

 Cycle   2  Pass 0  IDiag  1:
 E= -114.498480102024     Delta-E=       -0.000111696559 Rises=F Damp=F
 DIIS: error= 1.15D-03 at cycle   2 NSaved=   2.
 NSaved= 2 IEnMin= 2 EnMin= -114.498480102024     IErMin= 2 ErrMin= 1.15D-03
 ErrMax= 1.15D-03  0.00D+00 EMaxC= 1.00D-01 BMatC= 5.86D-05 BMatP= 1.39D-04
 IDIUse=3 WtCom= 9.88D-01 WtEn= 1.15D-02
 Coeff-Com:  0.340D+00 0.660D+00
 Coeff-En:   0.000D+00 0.100D+01
 Coeff:      0.336D+00 0.664D+00
 Gap=     0.340 Goal=   None    Shift=    0.000
 RMSDP=1.29D-04 MaxDP=1.47D-03 DE=-1.12D-04 OVMax= 3.87D-03

 Cycle   3  Pass 0  IDiag  1:
 E= -114.498498814578     Delta-E=       -0.000018712554 Rises=F Damp=F
 DIIS: error= 9.64D-04 at cycle   3 NSaved=   3.
 NSaved= 3 IEnMin= 3 EnMin= -114.498498814578     IErMin= 3 ErrMin= 9.64D-04
 ErrMax= 9.64D-04  0.00D+00 EMaxC= 1.00D-01 BMatC= 3.03D-05 BMatP= 5.86D-05
 IDIUse=3 WtCom= 9.90D-01 WtEn= 9.64D-03
 Coeff-Com: -0.465D-01 0.419D+00 0.627D+00
 Coeff-En:   0.000D+00 0.361D+00 0.639D+00
 Coeff:     -0.460D-01 0.419D+00 0.627D+00
 Gap=     0.341 Goal=   None    Shift=    0.000
 RMSDP=6.79D-05 MaxDP=7.42D-04 DE=-1.87D-05 OVMax= 2.10D-03

 Cycle   4  Pass 0  IDiag  1:
 E= -114.498520159811     Delta-E=       -0.000021345233 Rises=F Damp=F
 DIIS: error= 9.59D-05 at cycle   4 NSaved=   4.
 NSaved= 4 IEnMin= 4 EnMin= -114.498520159811     IErMin= 4 ErrMin= 9.59D-05
 ErrMax= 9.59D-05  0.00D+00 EMaxC= 1.00D-01 BMatC= 3.67D-07 BMatP= 3.03D-05
 IDIUse=1 WtCom= 1.00D+00 WtEn= 0.00D+00
 Coeff-Com: -0.230D-01 0.667D-01 0.174D+00 0.783D+00
 Coeff:     -0.230D-01 0.667D-01 0.174D+00 0.783D+00
 Gap=     0.341 Goal=   None    Shift=    0.000
 RMSDP=8.53D-06 MaxDP=9.77D-05 DE=-2.13D-05 OVMax= 1.90D-04

 Initial convergence to 1.0D-05 achieved.  Increase integral accuracy.
 Cycle   5  Pass 1  IDiag  1:
 E= -114.498520138420     Delta-E=        0.000000021391 Rises=F Damp=F
 DIIS: error= 2.42D-05 at cycle   1 NSaved=   1.
 NSaved= 1 IEnMin= 1 EnMin= -114.498520138420     IErMin= 1 ErrMin= 2.42D-05
 ErrMax= 2.42D-05  0.00D+00 EMaxC= 1.00D-01 BMatC= 1.86D-08 BMatP= 1.86D-08
 IDIUse=1 WtCom= 1.00D+00 WtEn= 0.00D+00
 Coeff-Com:  0.100D+01
 Coeff:      0.100D+01
 Gap=     0.341 Goal=   None    Shift=    0.000
 RMSDP=8.53D-06 MaxDP=9.77D-05 DE= 2.14D-08 OVMax= 1.18D-04

 Cycle   6  Pass 1  IDiag  1:
 E= -114.498520154282     Delta-E=       -0.000000015862 Rises=F Damp=F
 DIIS: error= 1.83D-05 at cycle   2 NSaved=   2.
 NSaved= 2 IEnMin= 2 EnMin= -114.498520154282     IErMin= 2 ErrMin= 1.83D-05
 ErrMax= 1.83D-05  0.00D+00 EMaxC= 1.00D-01 BMatC= 1.12D-08 BMatP= 1.86D-08
 IDIUse=1 WtCom= 1.00D+00 WtEn= 0.00D+00
 Coeff-Com:  0.432D+00 0.568D+00
 Coeff:      0.432D+00 0.568D+00
 Gap=     0.341 Goal=   None    Shift=    0.000
 RMSDP=1.46D-06 MaxDP=1.33D-05 DE=-1.59D-08 OVMax= 3.17D-05

 Cycle   7  Pass 1  IDiag  1:
 E= -114.498520162776     Delta-E=       -0.000000008494 Rises=F Damp=F
 DIIS: error= 4.16D-06 at cycle   3 NSaved=   3.
 NSaved= 3 IEnMin= 3 EnMin= -114.498520162776     IErMin= 3 ErrMin= 4.16D-06
 ErrMax= 4.16D-06  0.00D+00 EMaxC= 1.00D-01 BMatC= 8.17D-10 BMatP= 1.12D-08
 IDIUse=1 WtCom= 1.00D+00 WtEn= 0.00D+00
 Coeff-Com:  0.152D+00 0.259D+00 0.589D+00
 Coeff:      0.152D+00 0.259D+00 0.589D+00
 Gap=     0.341 Goal=   None    Shift=    0.000
 RMSDP=5.10D-07 MaxDP=4.23D-06 DE=-8.49D-09 OVMax= 1.00D-05

 Cycle   8  Pass 1  IDiag  1:
 E= -114.498520163360     Delta-E=       -0.000000000583 Rises=F Damp=F
 DIIS: error= 2.44D-06 at cycle   4 NSaved=   4.
 NSaved= 4 IEnMin= 4 EnMin= -114.498520163360     IErMin= 4 ErrMin= 2.44D-06
 ErrMax= 2.44D-06  0.00D+00 EMaxC= 1.00D-01 BMatC= 1.43D-10 BMatP= 8.17D-10
 IDIUse=1 WtCom= 1.00D+00 WtEn= 0.00D+00
 Coeff-Com: -0.102D+00-0.110D+00 0.297D+00 0.914D+00
 Coeff:     -0.102D+00-0.110D+00 0.297D+00 0.914D+00
 Gap=     0.341 Goal=   None    Shift=    0.000
 RMSDP=3.49D-07 MaxDP=3.51D-06 DE=-5.83D-10 OVMax= 9.76D-06

 Cycle   9  Pass 1  IDiag  1:
 E= -114.498520163563     Delta-E=       -0.000000000203 Rises=F Damp=F
 DIIS: error= 1.38D-07 at cycle   5 NSaved=   5.
 NSaved= 5 IEnMin= 5 EnMin= -114.498520163563     IErMin= 5 ErrMin= 1.38D-07
 ErrMax= 1.38D-07  0.00D+00 EMaxC= 1.00D-01 BMatC= 5.60D-13 BMatP= 1.43D-10
 IDIUse=1 WtCom= 1.00D+00 WtEn= 0.00D+00
 Coeff-Com: -0.388D-02-0.334D-02-0.432D-02 0.509D-01 0.961D+00
 Coeff:     -0.388D-02-0.334D-02-0.432D-02 0.509D-01 0.961D+00
 Gap=     0.341 Goal=   None    Shift=    0.000
 RMSDP=2.67D-08 MaxDP=2.78D-07 DE=-2.03D-10 OVMax= 3.04D-07

 Cycle  10  Pass 1  IDiag  1:
 E= -114.498520163564     Delta-E=       -0.000000000001 Rises=F Damp=F
 DIIS: error= 2.12D-08 at cycle   6 NSaved=   6.
 NSaved= 6 IEnMin= 6 EnMin= -114.498520163564     IErMin= 6 ErrMin= 2.12D-08
 ErrMax= 2.12D-08  0.00D+00 EMaxC= 1.00D-01 BMatC= 1.79D-14 BMatP= 5.60D-13
 IDIUse=1 WtCom= 1.00D+00 WtEn= 0.00D+00
 Coeff-Com:  0.573D-02 0.572D-02-0.175D-01-0.493D-01-0.123D+00 0.118D+01
 Coeff:      0.573D-02 0.572D-02-0.175D-01-0.493D-01-0.123D+00 0.118D+01
 Gap=     0.341 Goal=   None    Shift=    0.000
 RMSDP=8.49D-09 MaxDP=9.68D-08 DE=-6.82D-13 OVMax= 1.02D-07

 SCF Done:  E(RCAM-B3LYP) =  -114.498520164     A.U. after   10 cycles
            NFock= 10  Conv=0.85D-08     -V/T= 2.0036
 KE= 1.140875742899D+02 PE=-3.319624271448D+02 EE= 7.188886411058D+01
 Leave Link  502 at Mon Feb 26 13:53:24 2024, MaxMem= 14763950080 cpu:               6.4 elap:               0.2
 (Enter /apps/gaussian/g16-c01-avx2/g16/l701.exe)
 ... and contract with generalized density number  0.
 Compute integral first derivatives.
 Leave Link  701 at Mon Feb 26 13:53:24 2024, MaxMem= 14763950080 cpu:               2.2 elap:               0.1
 (Enter /apps/gaussian/g16-c01-avx2/g16/l702.exe)
 L702 exits ... SP integral derivatives will be done elsewhere.
 Leave Link  702 at Mon Feb 26 13:53:24 2024, MaxMem= 14763950080 cpu:               0.3 elap:               0.0
 (Enter /apps/gaussian/g16-c01-avx2/g16/l703.exe)
 Integral derivatives from FoFJK, PRISM(SPDF).
 Compute integral first derivatives, UseDBF=F ICtDFT=           0.
 Calling FoFJK, ICntrl=      2127 FMM=F ISym2X=1 I1Cent= 0 IOpClX= 0 NMat=1 NMatS=1 NMatT=0.
 FoFJK:  IHMeth= 1 ICntrl=    2127 DoSepK=T KAlg= 0 I1Cent=           0 FoldK=F
 IRaf=         1 NMat=       1 IRICut=       1 DoRegI=T DoRafI=F ISym2E= 1 IDoP0=0 IntGTp=1.
 FoFCou: FMM=F IPFlag=           0 FMFlag=      100000 FMFlg1=         800
         NFxFlg=           0 DoJE=F BraDBF=F KetDBF=F FulRan=T
         wScrn=  0.000000 ICntrl=      2527 IOpCl=  0 I1Cent=           0 NGrid=           0
         NMat0=    1 NMatS0=      1 NMatT0=    0 NMatD0=    1 NMtDS0=    0 NMtDT0=    0
 Petite list used in FoFCou.
 Leave Link  703 at Mon Feb 26 13:53:25 2024, MaxMem= 14763950080 cpu:               6.1 elap:               0.2
 (Enter /apps/gaussian/g16-c01-avx2/g16/l716.exe)
 Dipole        = 8.04170390D-18-3.41752781D-16-9.67538728D-01
 ***** Axes restored to original set *****
 -------------------------------------------------------------------
 Center     Atomic                   Forces (Hartrees/Bohr)
 Number     Number              X              Y              Z
 -------------------------------------------------------------------
      1        6           0.000763725    0.001323366   -0.000000000
      2        1          -0.000305495   -0.001516213    0.000000000
      3        1          -0.001159959   -0.001023095    0.000000000
      4        8           0.000701729    0.001215942   -0.000000000
 -------------------------------------------------------------------
 Cartesian Forces:  Max     0.001516213 RMS     0.000870343
 Leave Link  716 at Mon Feb 26 13:53:25 2024, MaxMem= 14763950080 cpu:               0.3 elap:               0.0
 (Enter /apps/gaussian/g16-c01-avx2/g16/l103.exe)

 GradGradGradGradGradGradGradGradGradGradGradGradGradGradGradGradGradGrad
 Berny optimization.
 Using GEDIIS/GDIIS optimizer.
 FormGI is forming the generalized inverse of G from B-inverse, IUseBI=4.
 Internal  Forces:  Max     0.001403901 RMS     0.001044346
 Search for a local minimum.
 Step number   3 out of a maximum of   20
 All quantities printed in internal units (Hartrees-Bohrs-Radians)
 RMS Force = .10443D-02 SwitMx=.10000D-02 MixMth= 1
 Mixed Optimization -- RFO/linear search
 Update second derivatives using D2CorX and points    1    2    3
 DE= -3.69D-04 DEPred=-3.57D-04 R= 1.03D+00
 TightC=F SS=  1.41D+00  RLast= 5.40D-02 DXNew= 6.1474D-01 1.6214D-01
 Trust test= 1.03D+00 RLast= 5.40D-02 DXMaxT set to 3.66D-01
 The second derivative matrix:
                          R1        R2        R3        A1        A2
           R1           0.35795
           R2          -0.01436   0.35795
           R3           0.01751   0.01751   0.88331
           A1           0.01843   0.01843  -0.04618   0.14609
           A2          -0.00922  -0.00922   0.02309   0.00695   0.15652
           A3          -0.00922  -0.00922   0.02309   0.00695  -0.00348
           D1           0.00000   0.00000  -0.00000  -0.00000   0.00000
                          A3        D1
           A3           0.15652
           D1           0.00000   0.03565
 ITU=  1  1  0
 Use linear search instead of GDIIS.
     Eigenvalues ---    0.03565   0.12954   0.16000   0.34800   0.37230
     Eigenvalues ---    0.88850
 RFO step:  Lambda=-1.99593757D-05 EMin= 3.56487693D-02
 Quartic linear search produced a step of  0.14975.
 Iteration  1 RMS(Cart)=  0.00468811 RMS(Int)=  0.00001879
 Iteration  2 RMS(Cart)=  0.00001994 RMS(Int)=  0.00000000
 Iteration  3 RMS(Cart)=  0.00000000 RMS(Int)=  0.00000000
 ITry= 1 IFail=0 DXMaxC= 6.31D-03 DCOld= 1.00D+10 DXMaxT= 3.66D-01 DXLimC= 3.00D+00 Rises=F
 ClnCor:  largest displacement from symmetrization is 1.84D-14 for atom     1.
 Variable       Old X    -DE/DX   Delta X   Delta X   Delta X     New X
                                 (Linear)    (Quad)   (Total)
    R1        2.08422   0.00119   0.00207   0.00219   0.00426   2.08849
    R2        2.08422   0.00119   0.00207   0.00219   0.00426   2.08849
    R3        2.26089   0.00140  -0.00276   0.00336   0.00060   2.26149
    A1        2.03939  -0.00138  -0.00573  -0.00494  -0.01067   2.02872
    A2        2.12190   0.00069   0.00287   0.00247   0.00534   2.12723
    A3        2.12190   0.00069   0.00287   0.00247   0.00534   2.12723
    D1        3.14159   0.00000   0.00000   0.00000   0.00000   3.14159
         Item               Value     Threshold  Converged?
 Maximum Force            0.001404     0.000450     NO 
 RMS     Force            0.001044     0.000300     NO 
 Maximum Displacement     0.006313     0.001800     NO 
 RMS     Displacement     0.004694     0.001200     NO 
 Predicted change in Energy=-1.669832D-05
 Lowest energy point so far.  Saving SCF results.
 GradGradGradGradGradGradGradGradGradGradGradGradGradGradGradGradGradGrad

 Leave Link  103 at Mon Feb 26 13:53:25 2024, MaxMem= 14763950080 cpu:               0.3 elap:               0.0
 (Enter /apps/gaussian/g16-c01-avx2/g16/l202.exe)
                          Input orientation:                          
 ---------------------------------------------------------------------
 Center     Atomic      Atomic             Coordinates (Angstroms)
 Number     Number       Type             X           Y           Z
 ---------------------------------------------------------------------
      1          6           0       -0.502386   -0.369762    0.000000
      2          1           0        0.018659   -1.344407    0.000000
      3          1           0       -1.606963   -0.406248   -0.000000
      4          8           0        0.095788    0.666742   -0.000000
 ---------------------------------------------------------------------
                    Distance matrix (angstroms):
                    1          2          3          4
     1  C    0.000000
     2  H    1.105179   0.000000
     3  H    1.105179   1.876910   0.000000
     4  O    1.196727   2.012628   2.012628   0.000000
 Stoichiometry    CH2O
 Framework group  C2V[C2(CO),SGV(H2)]
 Deg. of freedom     3
 Full point group                 C2V     NOp   4
 RotChk:  IX=3 Diff= 6.70D-16
 Largest Abelian subgroup         C2V     NOp   4
 Largest concise Abelian subgroup C2      NOp   2
                         Standard orientation:                         
 ---------------------------------------------------------------------
 Center     Atomic      Atomic             Coordinates (Angstroms)
 Number     Number       Type             X           Y           Z
 ---------------------------------------------------------------------
      1          6           0        0.000000   -0.000000   -0.525399
      2          1           0       -0.000000   -0.938455   -1.109114
      3          1           0        0.000000    0.938455   -1.109114
      4          8           0       -0.000000    0.000000    0.671328
 ---------------------------------------------------------------------
 Rotational constants (GHZ):         284.6919235          39.3605172          34.5796542
 Leave Link  202 at Mon Feb 26 13:53:25 2024, MaxMem= 14763950080 cpu:               0.1 elap:               0.0
 (Enter /apps/gaussian/g16-c01-avx2/g16/l301.exe)
 Standard basis: TZVP (5D, 7F)
 Ernie: Thresh=  0.10000D-02 Tol=  0.10000D-05 Strict=F.
 There are    27 symmetry adapted cartesian basis functions of A1  symmetry.
 There are     3 symmetry adapted cartesian basis functions of A2  symmetry.
 There are     9 symmetry adapted cartesian basis functions of B1  symmetry.
 There are    13 symmetry adapted cartesian basis functions of B2  symmetry.
 There are    25 symmetry adapted basis functions of A1  symmetry.
 There are     3 symmetry adapted basis functions of A2  symmetry.
 There are     9 symmetry adapted basis functions of B1  symmetry.
 There are    13 symmetry adapted basis functions of B2  symmetry.
    50 basis functions,    86 primitive gaussians,    52 cartesian basis functions
     8 alpha electrons        8 beta electrons
       nuclear repulsion energy        31.4595730875 Hartrees.
 IExCor=20419 DFT=T Ex+Corr=CAM-B3LYP ExCW=0 ScaHFX=  1.000000
 ScaDFX=  1.000000  1.000000  1.000000  0.810000 ScalE2=  1.000000  1.000000
 IRadAn=      5 IRanWt=     -1 IRanGd=            0 ICorTp=0 IEmpDi=  4
 HFx  wShort=  0.000000 wLong=  0.330000 cFull=  0.190000 cShort=  0.000000 cLong=  0.460000
 DFx  wShort=  0.000000 wLong=  0.330000 cFull=  0.190000 cShort=  0.000000 cLong=  0.460000
 NAtoms=    4 NActive=    4 NUniq=    3 SFac= 1.78D+00 NAtFMM=   60 NAOKFM=F Big=F
 Integral buffers will be    131072 words long.
 Raffenetti 2 integral format.
 Two-electron integral symmetry is turned on.
 Leave Link  301 at Mon Feb 26 13:53:25 2024, MaxMem= 14763950080 cpu:               0.8 elap:               0.0
 (Enter /apps/gaussian/g16-c01-avx2/g16/l302.exe)
 NPDir=0 NMtPBC=     1 NCelOv=     1 NCel=       1 NClECP=     1 NCelD=      1
         NCelK=      1 NCelE2=     1 NClLst=     1 CellRange=     0.0.
 One-electron integrals computed using PRISM.
 One-electron integral symmetry used in STVInt
 NBasis=    50 RedAO= T EigKep=  5.44D-03  NBF=    25     3     9    13
 NBsUse=    50 1.00D-06 EigRej= -1.00D+00 NBFU=    25     3     9    13
 Precomputing XC quadrature grid using
 IXCGrd= 4 IRadAn=           5 IRanWt=          -1 IRanGd=           0 AccXCQ= 0.00D+00.
 Generated NRdTot=       0 NPtTot=           0 NUsed=           0 NTot=          32
 NSgBfM=    52    52    52    52    52 MxSgAt=     4 MxSgA2=     4.
 Leave Link  302 at Mon Feb 26 13:53:25 2024, MaxMem= 14763950080 cpu:               2.1 elap:               0.1
 (Enter /apps/gaussian/g16-c01-avx2/g16/l303.exe)
 DipDrv:  MaxL=1.
 Leave Link  303 at Mon Feb 26 13:53:25 2024, MaxMem= 14763950080 cpu:               0.3 elap:               0.0
 (Enter /apps/gaussian/g16-c01-avx2/g16/l401.exe)
 Initial guess from the checkpoint file:  "CAM-B3LYP_job1.chk"
 B after Tr=    -0.000000   -0.000000    0.000000
         Rot=    1.000000    0.000000   -0.000000    0.000000 Ang=   0.00 deg.
 Guess basis will be translated and rotated to current coordinates.
 JPrj=2 DoOrth=T DoCkMO=T.
 Initial guess orbital symmetries:
       Occupied  (A1) (A1) (A1) (A1) (B2) (A1) (B1) (B2)
       Virtual   (B1) (A1) (A1) (B2) (A1) (B1) (B2) (A1) (A1) (B2)
                 (B1) (A1) (B2) (A1) (A2) (A1) (B2) (A1) (B1) (B1)
                 (B2) (A1) (B2) (B1) (A1) (A2) (A1) (A1) (B2) (B1)
                 (A1) (B2) (A2) (A1) (A1) (B2) (A1) (B1) (B2) (A1)
                 (A1) (A1)
 The electronic state of the initial guess is 1-A1.
 Leave Link  401 at Mon Feb 26 13:53:25 2024, MaxMem= 14763950080 cpu:               1.2 elap:               0.1
 (Enter /apps/gaussian/g16-c01-avx2/g16/l502.exe)
 Keep R1 ints in memory in symmetry-blocked form, NReq=29755384.
 FoFCou: FMM=F IPFlag=           0 FMFlag=           0 FMFlg1=           0
         NFxFlg=           0 DoJE=F BraDBF=F KetDBF=F FulRan=T
         wScrn=  0.000000 ICntrl=       600 IOpCl=  0 I1Cent=           0 NGrid=           0
         NMat0=    1 NMatS0=   1275 NMatT0=    0 NMatD0=    1 NMtDS0=    0 NMtDT0=    0
 Petite list used in FoFCou.
 Closed shell SCF:
 Using DIIS extrapolation, IDIIS=  1040.
 NGot= 14763950080 LenX= 14763712828 LenY= 14763709683
 Requested convergence on RMS density matrix=1.00D-08 within 128 cycles.
 Requested convergence on MAX density matrix=1.00D-06.
 Requested convergence on             energy=1.00D-06.
 No special actions if energy rises.

 Cycle   1  Pass 1  IDiag  1:
 E= -114.498532113262    
 DIIS: error= 3.25D-04 at cycle   1 NSaved=   1.
 NSaved= 1 IEnMin= 1 EnMin= -114.498532113262     IErMin= 1 ErrMin= 3.25D-04
 ErrMax= 3.25D-04  0.00D+00 EMaxC= 1.00D-01 BMatC= 3.97D-06 BMatP= 3.97D-06
 IDIUse=3 WtCom= 9.97D-01 WtEn= 3.25D-03
 Coeff-Com:  0.100D+01
 Coeff-En:   0.100D+01
 Coeff:      0.100D+01
 Gap=     0.341 Goal=   None    Shift=    0.000
 RMSDP=4.44D-05 MaxDP=4.52D-04              OVMax= 9.20D-04

 Cycle   2  Pass 1  IDiag  1:
 E= -114.498535277483     Delta-E=       -0.000003164221 Rises=F Damp=F
 DIIS: error= 2.12D-04 at cycle   2 NSaved=   2.
 NSaved= 2 IEnMin= 2 EnMin= -114.498535277483     IErMin= 2 ErrMin= 2.12D-04
 ErrMax= 2.12D-04  0.00D+00 EMaxC= 1.00D-01 BMatC= 1.91D-06 BMatP= 3.97D-06
 IDIUse=3 WtCom= 9.98D-01 WtEn= 2.12D-03
 Coeff-Com:  0.359D+00 0.641D+00
 Coeff-En:   0.000D+00 0.100D+01
 Coeff:      0.359D+00 0.641D+00
 Gap=     0.340 Goal=   None    Shift=    0.000
 RMSDP=2.09D-05 MaxDP=2.53D-04 DE=-3.16D-06 OVMax= 7.49D-04

 Cycle   3  Pass 1  IDiag  1:
 E= -114.498536031700     Delta-E=       -0.000000754217 Rises=F Damp=F
 DIIS: error= 1.62D-04 at cycle   3 NSaved=   3.
 NSaved= 3 IEnMin= 3 EnMin= -114.498536031700     IErMin= 3 ErrMin= 1.62D-04
 ErrMax= 1.62D-04  0.00D+00 EMaxC= 1.00D-01 BMatC= 8.96D-07 BMatP= 1.91D-06
 IDIUse=3 WtCom= 9.98D-01 WtEn= 1.62D-03
 Coeff-Com: -0.491D-01 0.409D+00 0.640D+00
 Coeff-En:   0.000D+00 0.330D+00 0.670D+00
 Coeff:     -0.490D-01 0.409D+00 0.640D+00
 Gap=     0.340 Goal=   None    Shift=    0.000
 RMSDP=1.29D-05 MaxDP=1.33D-04 DE=-7.54D-07 OVMax= 3.37D-04

 Cycle   4  Pass 1  IDiag  1:
 E= -114.498536662206     Delta-E=       -0.000000630506 Rises=F Damp=F
 DIIS: error= 1.60D-05 at cycle   4 NSaved=   4.
 NSaved= 4 IEnMin= 4 EnMin= -114.498536662206     IErMin= 4 ErrMin= 1.60D-05
 ErrMax= 1.60D-05  0.00D+00 EMaxC= 1.00D-01 BMatC= 1.18D-08 BMatP= 8.96D-07
 IDIUse=1 WtCom= 1.00D+00 WtEn= 0.00D+00
 Coeff-Com: -0.256D-01 0.124D+00 0.231D+00 0.671D+00
 Coeff:     -0.256D-01 0.124D+00 0.231D+00 0.671D+00
 Gap=     0.340 Goal=   None    Shift=    0.000
 RMSDP=1.50D-06 MaxDP=1.85D-05 DE=-6.31D-07 OVMax= 4.09D-05

 Cycle   5  Pass 1  IDiag  1:
 E= -114.498536672175     Delta-E=       -0.000000009969 Rises=F Damp=F
 DIIS: error= 3.30D-06 at cycle   5 NSaved=   5.
 NSaved= 5 IEnMin= 5 EnMin= -114.498536672175     IErMin= 5 ErrMin= 3.30D-06
 ErrMax= 3.30D-06  0.00D+00 EMaxC= 1.00D-01 BMatC= 4.81D-10 BMatP= 1.18D-08
 IDIUse=1 WtCom= 1.00D+00 WtEn= 0.00D+00
 Coeff-Com:  0.257D-02-0.374D-01-0.390D-01 0.366D-01 0.104D+01
 Coeff:      0.257D-02-0.374D-01-0.390D-01 0.366D-01 0.104D+01
 Gap=     0.340 Goal=   None    Shift=    0.000
 RMSDP=7.02D-07 MaxDP=9.72D-06 DE=-9.97D-09 OVMax= 1.57D-05

 Cycle   6  Pass 1  IDiag  1:
 E= -114.498536672839     Delta-E=       -0.000000000664 Rises=F Damp=F
 DIIS: error= 4.49D-07 at cycle   6 NSaved=   6.
 NSaved= 6 IEnMin= 6 EnMin= -114.498536672839     IErMin= 6 ErrMin= 4.49D-07
 ErrMax= 4.49D-07  0.00D+00 EMaxC= 1.00D-01 BMatC= 1.11D-11 BMatP= 4.81D-10
 IDIUse=1 WtCom= 1.00D+00 WtEn= 0.00D+00
 Coeff-Com:  0.563D-03-0.454D-02-0.404D-02-0.803D-02 0.213D-01 0.995D+00
 Coeff:      0.563D-03-0.454D-02-0.404D-02-0.803D-02 0.213D-01 0.995D+00
 Gap=     0.340 Goal=   None    Shift=    0.000
 RMSDP=8.31D-08 MaxDP=7.66D-07 DE=-6.64D-10 OVMax= 2.17D-06

 Cycle   7  Pass 1  IDiag  1:
 E= -114.498536672852     Delta-E=       -0.000000000013 Rises=F Damp=F
 DIIS: error= 6.69D-08 at cycle   7 NSaved=   7.
 NSaved= 7 IEnMin= 7 EnMin= -114.498536672852     IErMin= 7 ErrMin= 6.69D-08
 ErrMax= 6.69D-08  0.00D+00 EMaxC= 1.00D-01 BMatC= 1.11D-13 BMatP= 1.11D-11
 IDIUse=1 WtCom= 1.00D+00 WtEn= 0.00D+00
 Coeff-Com: -0.663D-04 0.110D-02 0.115D-02-0.495D-03-0.353D-01 0.252D-02
 Coeff-Com:  0.103D+01
 Coeff:     -0.663D-04 0.110D-02 0.115D-02-0.495D-03-0.353D-01 0.252D-02
 Coeff:      0.103D+01
 Gap=     0.340 Goal=   None    Shift=    0.000
 RMSDP=2.16D-08 MaxDP=2.29D-07 DE=-1.30D-11 OVMax= 3.70D-07

 Cycle   8  Pass 1  IDiag  1:
 E= -114.498536672852     Delta-E=       -0.000000000000 Rises=F Damp=F
 DIIS: error= 1.13D-08 at cycle   8 NSaved=   8.
 NSaved= 8 IEnMin= 8 EnMin= -114.498536672852     IErMin= 8 ErrMin= 1.13D-08
[...]
          X                                                                     X                                                    
          X                                                                     X                                                    
          X                                                                     X                                                    
          X                                                                     X                                                    
                                                                                X                                                    
                                                                                X                                                    
                                                                                X                                                    
                                                                                X                                                    
                                                                                X                                                    
                                                                                X                                                    
                                                                                X                                                    
                                                                                X                                                    
                                                                                X                                                    
 
 ***** Axes restored to original set *****
 -------------------------------------------------------------------
 Center     Atomic                   Forces (Hartrees/Bohr)
 Number     Number              X              Y              Z
 -------------------------------------------------------------------
      1        6           0.000022885    0.000039655   -0.000000000
      2        1          -0.000010824    0.000013116   -0.000000000
      3        1           0.000016772   -0.000002809    0.000000000
      4        8          -0.000028834   -0.000049962   -0.000000000
 -------------------------------------------------------------------
 Cartesian Forces:  Max     0.000049962 RMS     0.000022365
 -------------------------------------------------------------------
 Center     Atomic                Nonadiabatic Coup. (Bohr^-1)
 Number     Number              X              Y              Z
 -------------------------------------------------------------------
      1        6           0.000000000   -0.000000000   -0.000000000
      2        1          -0.000000000    0.000000000    0.330455597
      3        1          -0.000000000   -0.000000000   -0.330455597
      4        8          -0.000000000    0.000000000    0.000000000
 -------------------------------------------------------------------
 Cartesian Nonad. Coup.:  Max     0.330455597 RMS     0.134907933
 Force constants in Cartesian coordinates: 
                1             2             3             4             5 
      1  0.576273D+00
      2  0.524063D-01  0.636837D+00
      3  0.000000D+00  0.000000D+00 -0.167760D-01
      4 -0.116135D+00  0.123166D+00  0.000000D+00  0.121133D+00
      5  0.136329D+00 -0.231666D+00  0.000000D+00 -0.132625D+00  0.268908D+00
      6  0.000000D+00  0.000000D+00  0.595280D-02  0.000000D+00  0.000000D+00
      7 -0.315159D+00  0.213265D-01  0.000000D+00 -0.939578D-02 -0.384598D-02
      8  0.816313D-02 -0.326422D-01  0.000000D+00  0.231062D-01  0.173348D-02
      9  0.000000D+00  0.000000D+00  0.595280D-02  0.000000D+00  0.000000D+00
     10 -0.144979D+00 -0.196899D+00  0.000000D+00  0.439830D-02  0.141723D-03
     11 -0.196899D+00 -0.372529D+00  0.000000D+00 -0.136472D-01 -0.389758D-01
     12  0.000000D+00  0.000000D+00  0.487037D-02  0.000000D+00  0.000000D+00
                6             7             8             9            10 
      6 -0.210376D-02
      7  0.000000D+00  0.346823D+00
      8  0.000000D+00 -0.221340D-02  0.432181D-01
      9 -0.211396D-02  0.000000D+00  0.000000D+00 -0.210376D-02
     10  0.000000D+00 -0.222681D-01 -0.290560D-01  0.000000D+00  0.162849D+00
     11  0.000000D+00 -0.152671D-01 -0.123094D-01  0.000000D+00  0.225813D+00
     12 -0.173508D-02  0.000000D+00  0.000000D+00 -0.173507D-02  0.000000D+00
               11            12 
     11  0.423814D+00
     12  0.000000D+00 -0.140022D-02
 FormGI is forming the generalized inverse of G from B-inverse, IUseBI=4.
 Force constants in internal coordinates: 
                1             2             3             4             5 
      1  0.346809D+00
      2  0.172185D-02  0.346809D+00
      3  0.239178D-01  0.239178D-01  0.554133D+00
      4  0.506895D-02  0.506895D-02 -0.351090D-01  0.599536D-01
      5  0.112342D-01 -0.163032D-01  0.175545D-01 -0.299768D-01  0.630239D-01
      6 -0.163032D-01  0.112342D-01  0.175545D-01 -0.299768D-01 -0.330471D-01
      7  0.000000D+00  0.000000D+00  0.000000D+00  0.000000D+00  0.000000D+00
                6             7 
      6  0.630239D-01
      7  0.000000D+00 -0.684156D-02
 Leave Link  716 at Mon Feb 26 13:55:44 2024, MaxMem= 14763950080 cpu:               0.4 elap:               0.0
 (Enter /apps/gaussian/g16-c01-avx2/g16/l103.exe)

 GradGradGradGradGradGradGradGradGradGradGradGradGradGradGradGradGradGrad
 Berny optimization.
 Red2BG is reusing G-inverse.
 Internal  Forces:  Max     0.000057685 RMS     0.000023638
 Search for a local minimum.
 Step number   1 out of a maximum of    2
 All quantities printed in internal units (Hartrees-Bohrs-Radians)
 Second derivative matrix not updated -- analytic derivatives used.
 The second derivative matrix:
                          R1        R2        R3        A1        A2
           R1           0.34681
           R2           0.00172   0.34681
           R3           0.02392   0.02392   0.55413
           A1           0.00507   0.00507  -0.03511   0.05995
           A2           0.01123  -0.01630   0.01755  -0.02998   0.06302
           A3          -0.01630   0.01123   0.01755  -0.02998  -0.03305
           D1           0.00000   0.00000  -0.00000  -0.00000   0.00000
                          A3        D1
           A3           0.06302
           D1           0.00000  -0.00684
 ITU=  0
     Eigenvalues ---   -0.00684   0.08544   0.09306   0.34402   0.34810
     Eigenvalues ---    0.56313
 Eigenvalue     1 is  -6.84D-03 should be greater than     0.000000 Eigenvector:
                          D1        A1        A2        A3        R1
   1                   -1.00000  -0.00000   0.00000   0.00000   0.00000
                          R3        R2
   1                   -0.00000   0.00000
 Angle between quadratic step and forces=  33.95 degrees.
 Linear search not attempted -- first point.
 Iteration  1 RMS(Cart)=  0.00004824 RMS(Int)=  0.00000000
 Iteration  2 RMS(Cart)=  0.00000000 RMS(Int)=  0.00000000
 ITry= 1 IFail=0 DXMaxC= 6.37D-05 DCOld= 1.00D+10 DXMaxT= 3.00D-01 DXLimC= 3.00D+00 Rises=F
 Variable       Old X    -DE/DX   Delta X   Delta X   Delta X     New X
                                 (Linear)    (Quad)   (Total)
    R1        2.05725  -0.00002   0.00000  -0.00004  -0.00004   2.05721
    R2        2.05725  -0.00002   0.00000  -0.00004  -0.00004   2.05721
    R3        2.43109  -0.00006   0.00000  -0.00011  -0.00011   2.43098
    A1        2.12908  -0.00000   0.00000  -0.00008  -0.00008   2.12901
    A2        2.07705   0.00000   0.00000   0.00004   0.00004   2.07709
    A3        2.07705   0.00000   0.00000   0.00004   0.00004   2.07709
    D1        3.14159   0.00000   0.00000   0.00000   0.00000   3.14159
         Item               Value     Threshold  Converged?
 Maximum Force            0.000058     0.000450     YES
 RMS     Force            0.000024     0.000300     YES
 Maximum Displacement     0.000064     0.001800     YES
 RMS     Displacement     0.000048     0.001200     YES
 Predicted change in Energy=-3.970334D-09
 Optimization completed.
    -- Stationary point found.
                           ----------------------------
                           !   Optimized Parameters   !
                           ! (Angstroms and Degrees)  !
 --------------------------                            --------------------------
 ! Name  Definition              Value          Derivative Info.                !
 --------------------------------------------------------------------------------
 ! R1    R(1,2)                  1.0886         -DE/DX =    0.0                 !
 ! R2    R(1,3)                  1.0886         -DE/DX =    0.0                 !
 ! R3    R(1,4)                  1.2865         -DE/DX =   -0.0001              !
 ! A1    A(2,1,3)              121.9876         -DE/DX =    0.0                 !
 ! A2    A(2,1,4)              119.0062         -DE/DX =    0.0                 !
 ! A3    A(3,1,4)              119.0062         -DE/DX =    0.0                 !
 ! D1    D(2,1,4,3)            180.0            -DE/DX =    0.0                 !
 --------------------------------------------------------------------------------
 GradGradGradGradGradGradGradGradGradGradGradGradGradGradGradGradGradGrad

 Leave Link  103 at Mon Feb 26 13:55:44 2024, MaxMem= 14763950080 cpu:               0.3 elap:               0.0
 (Enter /apps/gaussian/g16-c01-avx2/g16/l9999.exe)
 -------------------------------------------------------------------
 Center     Atomic                Nonadiabatic Coup. (Bohr^-1)
 Number     Number              X              Y              Z
 -------------------------------------------------------------------
      1        6           0.000000000   -0.000000000   -0.000000000
      2        1          -0.000000000    0.000000000    0.330455597
      3        1          -0.000000000   -0.000000000   -0.330455597
      4        8          -0.000000000    0.000000000    0.000000000
 -------------------------------------------------------------------
 Cartesian Nonad. Coup.:  Max     0.330455597 RMS     0.134907933
 Electronic transition elements 
                 1             2 
      1  -0.114361D+03 -0.114190D+03
      2   0.000000D+00  0.000000D+00
      3   0.000000D+00  0.000000D+00
      4   0.000000D+00 -0.643810D-01
      5   0.000000D+00  0.000000D+00
      6   0.000000D+00  0.000000D+00
      7   0.000000D+00  0.373902D-01
      8   0.594372D+00  0.139167D+01
      9   0.102992D+01 -0.803143D+00
     10   0.000000D+00  0.000000D+00
     11   0.000000D+00  0.000000D+00
     12   0.000000D+00  0.000000D+00
     13   0.000000D+00  0.000000D+00
     14   0.000000D+00  0.000000D+00
     15  -0.691013D-01  0.139552D+00
     16   0.398789D-01  0.241813D+00
 Electronic Transition Derivatives 
                 1             2             3             4             5 
      1   0.000000D+00  0.000000D+00  0.000000D+00  0.000000D+00  0.000000D+00
      2   0.000000D+00  0.000000D+00 -0.486030D+00  0.000000D+00  0.000000D+00
      3   0.000000D+00  0.000000D+00  0.280492D+00  0.000000D+00  0.000000D+00
      4  -0.636114D+00  0.367107D+00  0.000000D+00 -0.193205D+00  0.111500D+00
      5   0.000000D+00  0.000000D+00 -0.130418D+00  0.000000D+00  0.000000D+00
      6   0.000000D+00  0.000000D+00  0.752655D-01  0.000000D+00  0.000000D+00
      7   0.313078D+00 -0.180680D+00  0.000000D+00  0.114051D-01 -0.658193D-02
      8   0.671658D+00 -0.311745D+00  0.000000D+00 -0.515729D+00  0.445148D+00
      9  -0.311745D+00  0.311384D+00  0.000000D+00  0.445148D+00 -0.128454D-02
     10   0.000000D+00  0.000000D+00 -0.933969D-03  0.000000D+00  0.000000D+00
     11   0.000000D+00  0.000000D+00  0.558062D-01  0.000000D+00  0.000000D+00
     12   0.000000D+00  0.000000D+00 -0.558062D-01  0.000000D+00  0.000000D+00
     13   0.000000D+00  0.000000D+00  0.000000D+00  0.000000D+00  0.000000D+00
     14   0.000000D+00  0.000000D+00  0.322468D-01  0.000000D+00  0.000000D+00
     15  -0.123023D+00 -0.203146D+00  0.000000D+00 -0.669209D-01 -0.620190D-01
     16   0.609714D-01  0.123023D+00  0.000000D+00 -0.153199D-01  0.669204D-01
                 6             7             8             9            10 
      1   0.000000D+00  0.000000D+00  0.000000D+00  0.000000D+00  0.000000D+00
      2  -0.244151D+00  0.000000D+00  0.000000D+00  0.865612D-01  0.000000D+00
      3   0.140901D+00  0.000000D+00  0.000000D+00 -0.499467D-01  0.000000D+00
      4   0.000000D+00  0.676867D-01 -0.596834D-01  0.000000D+00  0.855411D-01
      5   0.617229D-02  0.000000D+00  0.000000D+00 -0.218862D-02  0.000000D+00
      6  -0.356207D-02  0.000000D+00  0.000000D+00  0.126196D-02  0.000000D+00
      7   0.000000D+00 -0.409027D-02  0.117184D-02  0.000000D+00 -0.306105D-02
      8   0.000000D+00  0.885153D-01 -0.799254D-03  0.000000D+00  0.260317D-01
      9   0.000000D+00 -0.251562D-01 -0.982930D-02  0.000000D+00 -0.369046D-01
     10  -0.268381D+00  0.000000D+00  0.000000D+00 -0.782625D-01  0.000000D+00
     11  -0.325378D-01  0.000000D+00  0.000000D+00  0.347260D-01  0.000000D+00
     12   0.325378D-01  0.000000D+00  0.000000D+00  0.961543D-02  0.000000D+00
     13   0.000000D+00  0.000000D+00  0.000000D+00 -0.443404D-01  0.000000D+00
     14  -0.188015D-01  0.000000D+00  0.000000D+00 -0.183536D-01  0.000000D+00
     15   0.000000D+00 -0.394762D-02  0.236591D-02  0.000000D+00  0.144146D-01
     16   0.000000D+00  0.955188D-02 -0.110229D-01  0.000000D+00  0.368251D-02
                11            12            13            14            15 
      1   0.000000D+00  0.000000D+00  0.000000D+00  0.000000D+00  0.000000D+00
      2   0.000000D+00  0.865538D-01  0.000000D+00  0.000000D+00  0.710357D-01
      3   0.000000D+00 -0.499593D-01  0.000000D+00  0.000000D+00 -0.409953D-01
      4  -0.287455D-01  0.000000D+00  0.399775D-01 -0.230714D-01  0.000000D+00
      5   0.000000D+00 -0.218765D-02  0.000000D+00  0.000000D+00 -0.179602D-02
      6   0.000000D+00  0.126362D-02  0.000000D+00  0.000000D+00  0.103650D-02
      7   0.295525D-02  0.000000D+00 -0.425373D-02  0.245485D-02  0.000000D+00
      8  -0.612614D-01  0.000000D+00  0.401182D+00 -0.383087D+00  0.000000D+00
      9   0.526544D-01  0.000000D+00 -0.383087D+00 -0.415406D-01  0.000000D+00
     10   0.000000D+00 -0.782625D-01  0.000000D+00  0.000000D+00  0.424906D+00
     11   0.000000D+00 -0.318024D-01  0.000000D+00  0.000000D+00  0.296142D-01
     12   0.000000D+00 -0.125391D-01  0.000000D+00  0.000000D+00 -0.296142D-01
     13   0.000000D+00  0.443404D-01  0.000000D+00  0.000000D+00  0.000000D+00
     14   0.000000D+00  0.200430D-01  0.000000D+00  0.000000D+00  0.171121D-01
     15  -0.350362D-02  0.000000D+00  0.564539D-01  0.631567D-01  0.000000D+00
     16   0.556055D-03  0.000000D+00  0.208549D-02 -0.564536D-01  0.000000D+00

 ----------------------------------------------------------------------

 Electric dipole moment (input orientation):
 (Debye = 10**-18 statcoulomb cm , SI units = C m)
                  (au)            (Debye)         (10**-30 SI)
   Tot        0.655310D+00      0.166563D+01      0.555595D+01
   x         -0.327552D+00     -0.832554D+00     -0.277710D+01
   y         -0.567575D+00     -0.144263D+01     -0.481210D+01
   z          0.000000D+00      0.000000D+00      0.000000D+00

 Dipole polarizability, Alpha (input orientation).
 (esu units = cm**3 , SI units = C**2 m**2 J**-1)
 Alpha(0;0):
               (au)            (10**-24 esu)      (10**-40 SI)
   iso        0.153520D+02      0.227493D+01      0.253120D+01
   aniso      0.726770D+01      0.107696D+01      0.119828D+01
   xx         0.148253D+02      0.219688D+01      0.244436D+01
   yx         0.309922D+01      0.459257D+00      0.510993D+00
   yy         0.184070D+02      0.272763D+01      0.303490D+01
   zx         0.000000D+00      0.000000D+00      0.000000D+00
   zy         0.000000D+00      0.000000D+00      0.000000D+00
   zz         0.128237D+02      0.190028D+01      0.211434D+01

 ----------------------------------------------------------------------

 Dipole orientation:
     6         -0.40967521          0.23642673          1.17488249
     1          1.14864344         -0.66289100          2.17245197
     1         -1.96799385          1.13574445          2.17245197
     8         -0.40967521          0.23642673         -1.25620673

 Electric dipole moment (dipole orientation):
 (Debye = 10**-18 statcoulomb cm , SI units = C m)
                  (au)            (Debye)         (10**-30 SI)
   Tot        0.655310D+00      0.166563D+01      0.555595D+01
   x          0.000000D+00      0.000000D+00      0.000000D+00
   y          0.000000D+00      0.000000D+00      0.000000D+00
   z          0.655310D+00      0.166563D+01      0.555595D+01

 Dipole polarizability, Alpha (dipole orientation).
 (esu units = cm**3 , SI units = C**2 m**2 J**-1)
 Alpha(0;0):
               (au)            (10**-24 esu)      (10**-40 SI)
   iso        0.153520D+02      0.227493D+01      0.253120D+01
   aniso      0.726770D+01      0.107696D+01      0.119828D+01
   xx         0.129835D+02      0.192395D+01      0.214069D+01
   yx        -0.922206D-01     -0.136657D-01     -0.152051D-01
   yy         0.128769D+02      0.190816D+01      0.212312D+01
   zx         0.000000D+00      0.000000D+00      0.000000D+00
   zy         0.000000D+00      0.000000D+00      0.000000D+00
   zz         0.201956D+02      0.299267D+01      0.332980D+01

 ----------------------------------------------------------------------
 Unable to Open any file for archive entry.
 1\1\GINC-CX3-7-2\Freq\RCAM-B3LYP TD-FC\TZVP\C1H2O1\RK820\26-Feb-2024\0
 \\#p CAM-B3LYP/TZVP TD=(nstates=2, Root=1) geom=check Density=Current 
 Freq\\TD/CAM-B3LYP for formaldehyde, performing a frequency calculatio
 n on the first excited state.\\0,1\C,-0.5275533412,-0.4133711226,0.\H,
 0.03321103,-1.3464846295,0.\H,-1.6160423985,-0.3946877415,0.\O,0.11548
 24617,0.7008676566,0.\\Version=ES64L-G16RevC.01\State=1-A1\HF=-114.487
 7144\RMSD=7.301e-09\RMSF=2.236e-05\ZeroPoint=0.0225202\Thermal=0.02542
 54\ETot=-114.3354961\HTot=-114.3345519\GTot=-114.3595183\Dipole=-0.327
 5519,-0.5675749,0.\DipoleDeriv=0.0920444,-0.0590717,0.,-0.0590718,0.02
 37769,0.,0.,0.,-0.5095091,0.0645971,0.0267458,0.,0.0289518,0.1736291,0
 .,0.,0.,0.2761904,0.1222089,0.0622419,0.,0.0600359,0.1160174,0.,0.,0.,
 0.2761904,-0.2788505,-0.0299159,0.,-0.0299159,-0.3134234,0.,0.,0.,-0.0
 428717\Polar=14.8252958,3.0992219,18.4069768,0.,0.,12.8236918\Quadrupo
 le=1.0420167,0.3057767,-1.3477935,-0.6370671,0.,0.\PG=C02V [C2(C1O1),S
 GV(H2)]\NImag=1\\0.57627293,0.05240631,0.63683739,0.,0.,-0.01677597,-0
 .11613514,0.12316605,0.,0.12113262,0.13632940,-0.23166586,0.,-0.132625
 14,0.26890819,0.,0.,0.00595280,0.,0.,-0.00210376,-0.31515878,0.0213264
 8,0.,-0.00939578,-0.00384598,0.,0.34682269,0.00816313,-0.03264223,0.,0
 .02310624,0.00173348,0.,-0.00221340,0.04321812,0.,0.,0.00595280,0.,0.,
 -0.00211396,0.,0.,-0.00210376,-0.14497901,-0.19689884,0.,0.00439830,0.
 00014172,0.,-0.02226814,-0.02905597,0.,0.16284885,-0.19689884,-0.37252
 930,0.,-0.01364715,-0.03897582,0.,-0.01526709,-0.01230938,0.,0.2258130
 9,0.42381449,0.,0.,0.00487037,0.,0.,-0.00173508,0.,0.,-0.00173507,0.,0
 .,-0.00140022\\-0.00002289,-0.00003966,0.,0.00001082,-0.00001312,0.,-0
 .00001677,0.00000281,0.,0.00002883,0.00004996,0.\\\@
 The archive entry for this job was punched.


 IF NO USE IS MADE OF THE LABOR OF PAST AGES,
 THE WORLD MUST REMAIN ALWAYS IN THE INFANCY OF KNOWLEDGE.

                          -- CICERO
 Job cpu time:       0 days  0 hours  3 minutes  8.1 seconds.
 Elapsed time:       0 days  0 hours  0 minutes  6.6 seconds.
 File lengths (MBytes):  RWF=     41 Int=      0 D2E=      0 Chk=      2 Scr=      1
 Normal termination of Gaussian 16 at Mon Feb 26 13:55:45 2024.
