 Entering Gaussian System, Link 0=g16
 Input=manual_displacement_CAM-B3LYP.gjf
 Output=manual_displacement_CAM-B3LYP.log
 Initial command:
 /apps/gaussian/g16-c01-avx2/g16/l1.exe "/var/tmp/pbs.8988462.pbs/Gau-3162432.inp" -scrdir="/var/tmp/pbs.8988462.pbs/"
 Entering Link 1 = /apps/gaussian/g16-c01-avx2/g16/l1.exe PID=   3162438.
  
 Copyright (c) 1988-2019, Gaussian, Inc.  All Rights Reserved.
  
 This is part of the Gaussian(R) 16 program.  It is based on
 the Gaussian(R) 09 system (copyright 2009, Gaussian, Inc.),
 the Gaussian(R) 03 system (copyright 2003, Gaussian, Inc.),
 the Gaussian(R) 98 system (copyright 1998, Gaussian, Inc.),
 the Gaussian(R) 94 system (copyright 1995, Gaussian, Inc.),
 the Gaussian 92(TM) system (copyright 1992, Gaussian, Inc.),
 the Gaussian 90(TM) system (copyright 1990, Gaussian, Inc.),
 the Gaussian 88(TM) system (copyright 1988, Gaussian, Inc.),
 the Gaussian 86(TM) system (copyright 1986, Carnegie Mellon
 University), and the Gaussian 82(TM) system (copyright 1983,
 Carnegie Mellon University). Gaussian is a federally registered
 trademark of Gaussian, Inc.
  
 This software contains proprietary and confidential information,
 including trade secrets, belonging to Gaussian, Inc.
  
 This software is provided under written license and may be
 used, copied, transmitted, or stored only in accord with that
 written license.
  
 The following legend is applicable only to US Government
 contracts under FAR:
  
                    RESTRICTED RIGHTS LEGEND
  
 Use, reproduction and disclosure by the US Government is
 subject to restrictions as set forth in subparagraphs (a)
 and (c) of the Commercial Computer Software - Restricted
 Rights clause in FAR 52.227-19.
  
 Gaussian, Inc.
 340 Quinnipiac St., Bldg. 40, Wallingford CT 06492
  
  
 ---------------------------------------------------------------
 Warning -- This program may not be used in any manner that
 competes with the business of Gaussian, Inc. or will provide
 assistance to any competitor of Gaussian, Inc.  The licensee
 of this program is prohibited from giving any competitor of
 Gaussian, Inc. access to this program.  By using this program,
 the user acknowledges that Gaussian, Inc. is engaged in the
 business of creating and licensing software in the field of
 computational chemistry and represents and warrants to the
 licensee that it is not a competitor of Gaussian, Inc. and that
 it will not use this program in any manner prohibited above.
 ---------------------------------------------------------------
  

 Cite this work as:
 Gaussian 16, Revision C.01,
 M. J. Frisch, G. W. Trucks, H. B. Schlegel, G. E. Scuseria, 
 M. A. Robb, J. R. Cheeseman, G. Scalmani, V. Barone, 
 G. A. Petersson, H. Nakatsuji, X. Li, M. Caricato, A. V. Marenich, 
 J. Bloino, B. G. Janesko, R. Gomperts, B. Mennucci, H. P. Hratchian, 
 J. V. Ortiz, A. F. Izmaylov, J. L. Sonnenberg, D. Williams-Young, 
 F. Ding, F. Lipparini, F. Egidi, J. Goings, B. Peng, A. Petrone, 
 T. Henderson, D. Ranasinghe, V. G. Zakrzewski, J. Gao, N. Rega, 
 G. Zheng, W. Liang, M. Hada, M. Ehara, K. Toyota, R. Fukuda, 
 J. Hasegawa, M. Ishida, T. Nakajima, Y. Honda, O. Kitao, H. Nakai, 
 T. Vreven, K. Throssell, J. A. Montgomery, Jr., J. E. Peralta, 
 F. Ogliaro, M. J. Bearpark, J. J. Heyd, E. N. Brothers, K. N. Kudin, 
 V. N. Staroverov, T. A. Keith, R. Kobayashi, J. Normand, 
 K. Raghavachari, A. P. Rendell, J. C. Burant, S. S. Iyengar, 
 J. Tomasi, M. Cossi, J. M. Millam, M. Klene, C. Adamo, R. Cammi, 
 J. W. Ochterski, R. L. Martin, K. Morokuma, O. Farkas, 
 J. B. Foresman, and D. J. Fox, Gaussian, Inc., Wallingford CT, 2019.
 
 ******************************************
 Gaussian 16:  ES64L-G16RevC.01  3-Jul-2019
                26-Feb-2024 
 ******************************************
 %chk=manual_displacement_CAM-B3LYP.chk
 ------------------------------------------------------------------
 # CAM-B3LYP/TZVP TD=(NStates=2, Root=1) geom=connectivity Opt Freq
 ------------------------------------------------------------------
 1/18=20,19=15,26=3,38=1,57=2/1,3;
 2/9=110,12=2,17=6,18=5,40=1/2;
 3/5=19,7=101,11=9,25=1,30=1,71=1,74=-40/1,2,3,8;
 4//1;
 5/5=2,38=5/2;
 8/6=1,10=1,107=1,108=2/1;
 9/8=1,15=2,41=2,42=1,70=2/14;
 10/5=4,28=1/2;
 6/7=2,8=2,9=2,10=2/1;
 7/12=6,13=5,14=1/1,2,3,16;
 1/18=20,19=15,26=3/3(2);
 2/9=110/2;
 99//99;
 2/9=110/2;
 3/5=19,7=101,11=9,25=1,30=1,71=1,74=-40/1,2,3,8;
 4/5=5,16=3,69=1/1;
 5/5=2,38=5/2;
 8/6=1,10=1,107=1,108=2/1;
 9/8=1,15=2,41=2,42=1,49=4,70=2/14;
 10/5=4,28=1/2;
 7/12=6,13=5,14=1/1,2,3,16;
 1/18=20,19=15,26=3/3(-8);
 2/9=110/2;
 6/7=2,8=2,9=2,10=2/1;
 99/9=10/99;
 ----------------------------------------------------------------------
 Manually displaced optimization and frequency calculation of formaldeh
 yde
 ----------------------------------------------------------------------
 Symbolic Z-matrix:
 Charge =  0 Multiplicity = 1
 C                    -0.0816    0.       -0.57725 
 H                     0.336    -0.9521   -1.10514 
 H                     0.336     0.9521   -1.10514 
 O                     0.0192    0.        0.70923 
 

 GradGradGradGradGradGradGradGradGradGradGradGradGradGradGradGradGradGrad
 Berny optimization.
 Initialization pass.
                           ----------------------------
                           !    Initial Parameters    !
                           ! (Angstroms and Degrees)  !
 --------------------------                            --------------------------
 ! Name  Definition              Value          Derivative Info.                !
 --------------------------------------------------------------------------------
 ! R1    R(1,2)                  1.166          estimate D2E/DX2                !
 ! R2    R(1,3)                  1.166          estimate D2E/DX2                !
 ! R3    R(1,4)                  1.2904         estimate D2E/DX2                !
 ! A1    A(2,1,3)              109.4823         estimate D2E/DX2                !
 ! A2    A(2,1,4)              115.0481         estimate D2E/DX2                !
 ! A3    A(3,1,4)              115.0481         estimate D2E/DX2                !
 ! D1    D(2,1,4,3)            128.6639         estimate D2E/DX2                !
 --------------------------------------------------------------------------------
 Trust Radius=3.00D-01 FncErr=1.00D-07 GrdErr=1.00D-06 EigMax=2.50D+02 EigMin=1.00D-04
 Number of steps in this run=     20 maximum allowed number of steps=    100.
 GradGradGradGradGradGradGradGradGradGradGradGradGradGradGradGradGradGrad

                          Input orientation:                          
 ---------------------------------------------------------------------
 Center     Atomic      Atomic             Coordinates (Angstroms)
 Number     Number       Type             X           Y           Z
 ---------------------------------------------------------------------
      1          6           0       -0.081600    0.000000   -0.577252
      2          1           0        0.336000   -0.952097   -1.105143
      3          1           0        0.336000    0.952097   -1.105143
      4          8           0        0.019200    0.000000    0.709225
 ---------------------------------------------------------------------
                    Distance matrix (angstroms):
                    1          2          3          4
     1  C    0.000000
     2  H    1.165996   0.000000
     3  H    1.165996   1.904194   0.000000
     4  O    1.290420   2.073350   2.073350   0.000000
 Stoichiometry    CH2O
 Framework group  CS[SG(CO),X(H2)]
 Deg. of freedom     4
 Full point group                 CS      NOp   2
 Largest Abelian subgroup         CS      NOp   2
 Largest concise Abelian subgroup CS      NOp   2
                         Standard orientation:                         
 ---------------------------------------------------------------------
 Center     Atomic      Atomic             Coordinates (Angstroms)
 Number     Number       Type             X           Y           Z
 ---------------------------------------------------------------------
      1          6           0        0.057195    0.583503    0.000000
      2          1           0       -0.400365    1.077160    0.952097
      3          1           0       -0.400365    1.077160   -0.952097
      4          8           0        0.057195   -0.706917   -0.000000
 ---------------------------------------------------------------------
 Rotational constants (GHZ):         236.1101277          34.4744794          31.2475403
 Standard basis: TZVP (5D, 7F)
 There are    36 symmetry adapted cartesian basis functions of A'  symmetry.
 There are    16 symmetry adapted cartesian basis functions of A"  symmetry.
 There are    34 symmetry adapted basis functions of A'  symmetry.
 There are    16 symmetry adapted basis functions of A"  symmetry.
    50 basis functions,    86 primitive gaussians,    52 cartesian basis functions
     8 alpha electrons        8 beta electrons
       nuclear repulsion energy        29.4915512250 Hartrees.
 NAtoms=    4 NActive=    4 NUniq=    3 SFac= 1.78D+00 NAtFMM=   60 NAOKFM=F Big=F
 Integral buffers will be    131072 words long.
 Raffenetti 1 integral format.
 Two-electron integral symmetry is turned on.
 One-electron integrals computed using PRISM.
 NBasis=    50 RedAO= T EigKep=  5.17D-03  NBF=    34    16
 NBsUse=    50 1.00D-06 EigRej= -1.00D+00 NBFU=    34    16
 ExpMin= 9.52D-02 ExpMax= 2.70D+04 ExpMxC= 9.22D+02 IAcc=3 IRadAn=         5 AccDes= 0.00D+00
 Harris functional with IExCor=20419 and IRadAn=       5 diagonalized for initial guess.
 HarFok:  IExCor=20419 AccDes= 0.00D+00 IRadAn=         5 IDoV= 1 UseB2=F ITyADJ=14
 ICtDFT=  3500011 ScaDFX=  1.000000  1.000000  1.000000  1.000000
 FoFCou: FMM=F IPFlag=           0 FMFlag=      100000 FMFlg1=           0
         NFxFlg=           0 DoJE=T BraDBF=F KetDBF=T FulRan=T
         wScrn=  0.000000 ICntrl=       500 IOpCl=  0 I1Cent=   200000004 NGrid=           0
         NMat0=    1 NMatS0=      1 NMatT0=    0 NMatD0=    1 NMtDS0=    0 NMtDT0=    0
 Petite list used in FoFCou.
 Initial guess orbital symmetries:
       Occupied  (A') (A') (A') (A') (A") (A') (A') (A")
       Virtual   (A') (A') (A') (A") (A') (A") (A') (A') (A") (A')
                 (A') (A') (A") (A') (A") (A') (A') (A") (A') (A')
                 (A") (A') (A") (A') (A") (A') (A') (A') (A") (A')
                 (A") (A') (A") (A') (A') (A') (A") (A') (A") (A')
                 (A') (A')
 The electronic state of the initial guess is 1-A'.
 Keep R1 ints in memory in symmetry-blocked form, NReq=2573813.
 Requested convergence on RMS density matrix=1.00D-08 within 128 cycles.
 Requested convergence on MAX density matrix=1.00D-06.
 Requested convergence on             energy=1.00D-06.
 No special actions if energy rises.
 Integral accuracy reduced to 1.0D-05 until final iterations.
 Initial convergence to 1.0D-05 achieved.  Increase integral accuracy.
 SCF Done:  E(RCAM-B3LYP) =  -114.455978545     A.U. after   12 cycles
            NFock= 12  Conv=0.99D-08     -V/T= 2.0071
 DoSCS=F DFT=T ScalE2(SS,OS)=  1.000000  1.000000
 ExpMin= 9.52D-02 ExpMax= 2.70D+04 ExpMxC= 9.22D+02 IAcc=3 IRadAn=         5 AccDes= 0.00D+00
 HarFok:  IExCor=  205 AccDes= 0.00D+00 IRadAn=         5 IDoV=-2 UseB2=F ITyADJ=14
 ICtDFT= 12500011 ScaDFX=  1.000000  1.000000  1.000000  1.000000
 Range of M.O.s used for correlation:     3    50
 NBasis=    50 NAE=     8 NBE=     8 NFC=     2 NFV=     0
 NROrb=     48 NOA=     6 NOB=     6 NVA=    42 NVB=    42
 Keep R1, R2, and R3 ints in memory in symmetry-blocked form, NReq=2752216.
 Orbital symmetries:
       Occupied  (A') (A') (A') (A') (A") (A') (A') (A")
       Virtual   (A') (A') (A") (A') (A') (A") (A') (A') (A") (A')
                 (A') (A') (A") (A') (A") (A') (A') (A") (A') (A')
                 (A") (A') (A") (A') (A") (A') (A') (A") (A') (A')
                 (A") (A') (A") (A') (A') (A') (A") (A') (A") (A')
                 (A') (A')
     8 initial guesses have been made.
 Convergence on wavefunction:    0.000001000000000
 Iteration     1 Dimension     8 NMult     0 NNew      8
 CISAX will form     8 AO SS matrices at one time.
 New state      2 was old state      4
 Iteration     2 Dimension    12 NMult     8 NNew      4
 Iteration     3 Dimension    16 NMult    12 NNew      4
 Iteration     4 Dimension    20 NMult    16 NNew      4
 Iteration     5 Dimension    24 NMult    20 NNew      4
 Iteration     6 Dimension    28 NMult    24 NNew      4
 Iteration     7 Dimension    32 NMult    28 NNew      4
 Iteration     8 Dimension    34 NMult    32 NNew      2
 Iteration     9 Dimension    36 NMult    34 NNew      2
 ***********************************************************************
 Excited states from <AA,BB:AA,BB> singles matrix:
 ***********************************************************************
 
 Ground to excited state transition densities written to RWF  633
 Ground to excited state transition electric dipole moments (Au):
       state          X           Y           Z        Dip. S.      Osc.
         1        -0.0000     -0.0000     -0.1474      0.0217      0.0015
         2         0.0549      0.3612     -0.0000      0.1335      0.0235
 Ground to excited state transition velocity dipole moments (Au):
       state          X           Y           Z        Dip. S.      Osc.
         1         0.0000     -0.0000      0.0093      0.0001      0.0006
         2        -0.0006     -0.0825      0.0000      0.0068      0.0172
 Ground to excited state transition magnetic dipole moments (Au):
       state          X           Y           Z
         1         0.1273     -1.2124     -0.0000
         2         0.0000     -0.0000      1.4269
 Ground to excited state transition velocity quadrupole moments (Au):
       state          XX          YY          ZZ          XY          XZ          YZ
         1         0.0000     -0.0000     -0.0000      0.0000     -0.0716      0.0134
         2        -0.0364     -0.0282      0.0159     -0.2792     -0.0000      0.0000
 <0|del|b> * <b|rxdel|0> + <0|del|b> * <b|delr+rdel|0>
 Rotatory Strengths (R) in cgs (10**-40 erg-esu-cm/Gauss)
       state          XX          YY          ZZ    R(velocity)    E-M Angle
         1         0.0000     -0.0000      0.0000      0.0000       90.00
         2         0.0000      0.0000      0.0000      0.0000       90.00
 1/2[<0|r|b>*<b|rxdel|0> + (<0|rxdel|b>*<b|r|0>)*]
 Rotatory Strengths (R) in cgs (10**-40 erg-esu-cm/Gauss)
       state          XX          YY          ZZ     R(length)
         1         0.0000     -0.0000     -0.0000     -0.0000
         2        -0.0000      0.0000      0.0000      0.0000
  1/2[<0|del|b>*<b|r|0> + (<0|r|b>*<b|del|0>)*] (Au)
       state          X           Y           Z        Dip. S.   Osc.(frdel)
         1        -0.0000      0.0000     -0.0014      0.0014      0.0009
         2        -0.0000     -0.0298     -0.0000      0.0298      0.0199

 Excitation energies and oscillator strengths:
 
 Excited State   1:      Singlet-A"     2.7322 eV  453.79 nm  f=0.0015  <S**2>=0.000
       8 ->  9         0.70399
 This state for optimization and/or second-order correction.
 Total Energy, E(TD-HF/TD-DFT) =  -114.355571851    
 Copying the excited state density for this state as the 1-particle RhoCI density.
 
 Excited State   2:      Singlet-A'     7.1880 eV  172.49 nm  f=0.0235  <S**2>=0.000
       6 ->  9         0.54379
       7 ->  9        -0.44392
 SavETr:  write IOETrn=   770 NScale= 10 NData=  16 NLR=1 NState=    2 LETran=      46.
          IDoAtm=1111
          Differentiating once with respect to electric field.
                with respect to dipole field.
          Differentiating once with respect to nuclear coordinates.
 Keep R1 ints in memory in symmetry-blocked form, NReq=2576454.
          There are     1 degrees of freedom in the 1st order CPHF.  IDoFFX=0 NUNeed=     1.
 LinEq1:  Iter=  0 NonCon=     1 RMS=6.03D-02 Max=8.96D-01 NDo=     1
 AX will form     1 AO Fock derivatives at one time.
 LinEq1:  Iter=  1 NonCon=     1 RMS=1.64D-02 Max=1.51D-01 NDo=     1
 LinEq1:  Iter=  2 NonCon=     1 RMS=6.28D-03 Max=5.49D-02 NDo=     1
 LinEq1:  Iter=  3 NonCon=     1 RMS=2.10D-03 Max=1.11D-02 NDo=     1
 LinEq1:  Iter=  4 NonCon=     1 RMS=5.07D-04 Max=2.79D-03 NDo=     1
 LinEq1:  Iter=  5 NonCon=     1 RMS=1.09D-04 Max=9.68D-04 NDo=     1
 LinEq1:  Iter=  6 NonCon=     1 RMS=2.07D-05 Max=1.48D-04 NDo=     1
 LinEq1:  Iter=  7 NonCon=     1 RMS=3.94D-06 Max=3.56D-05 NDo=     1
 LinEq1:  Iter=  8 NonCon=     1 RMS=7.63D-07 Max=4.78D-06 NDo=     1
 LinEq1:  Iter=  9 NonCon=     1 RMS=1.14D-07 Max=5.50D-07 NDo=     1
 LinEq1:  Iter= 10 NonCon=     1 RMS=1.21D-08 Max=6.40D-08 NDo=     1
 LinEq1:  Iter= 11 NonCon=     1 RMS=2.12D-09 Max=1.35D-08 NDo=     1
 LinEq1:  Iter= 12 NonCon=     1 RMS=2.09D-10 Max=1.26D-09 NDo=     1
 LinEq1:  Iter= 13 NonCon=     0 RMS=1.99D-11 Max=1.03D-10 NDo=     1
 Linear equations converged to 1.000D-10 1.000D-09 after    13 iterations.
 End of Minotr F.D. properties file   721 does not exist.
 End of Minotr F.D. properties file   722 does not exist.
 End of Minotr F.D. properties file   788 does not exist.

 **********************************************************************

            Population analysis using the SCF Density.

 **********************************************************************

 Orbital symmetries:
       Occupied  (A') (A') (A') (A') (A") (A') (A') (A")
       Virtual   (A') (A') (A") (A') (A') (A") (A') (A') (A") (A')
                 (A') (A') (A") (A') (A") (A') (A') (A") (A') (A')
                 (A") (A') (A") (A') (A") (A') (A') (A") (A') (A')
                 (A") (A') (A") (A') (A') (A') (A") (A') (A") (A')
                 (A') (A')
 The electronic state is 1-A'.
 Alpha  occ. eigenvalues --  -19.23500 -10.37164  -1.11466  -0.71331  -0.54857
 Alpha  occ. eigenvalues --   -0.51884  -0.45351  -0.34363
 Alpha virt. eigenvalues --   -0.05338   0.08681   0.13909   0.14518   0.24364
 Alpha virt. eigenvalues --    0.27061   0.27772   0.44196   0.45129   0.45860
 Alpha virt. eigenvalues --    0.51765   0.56043   0.58025   0.77773   1.27343
 Alpha virt. eigenvalues --    1.29456   1.32918   1.34925   1.35765   1.49074
 Alpha virt. eigenvalues --    1.66842   1.72667   1.73764   1.90323   2.05013
 Alpha virt. eigenvalues --    2.17482   2.25779   2.49156   2.50098   2.66422
 Alpha virt. eigenvalues --    2.67973   2.68823   2.70537   2.72957   2.94371
 Alpha virt. eigenvalues --    3.16393   3.18076   3.18367   3.28133   4.09979
 Alpha virt. eigenvalues --   21.70881  43.30801
          Condensed to atoms (all electrons):
               1          2          3          4
     1  C    4.762467   0.369594   0.369594   0.451190
     2  H    0.369594   0.666137  -0.090551  -0.059643
     3  H    0.369594  -0.090551   0.666137  -0.059643
     4  O    0.451190  -0.059643  -0.059643   7.944174
 Mulliken charges:
               1
     1  C    0.047154
     2  H    0.114462
     3  H    0.114462
     4  O   -0.276079
 Sum of Mulliken charges =   0.00000
 Mulliken charges with hydrogens summed into heavy atoms:
               1
     1  C    0.276079
     4  O   -0.276079
 Electronic spatial extent (au):  <R**2>=             64.5998
 Charge=              0.0000 electrons
 Dipole moment (field-independent basis, Debye):
    X=             -0.4740    Y=              2.5577    Z=              0.0000  Tot=              2.6012
 Quadrupole moment (field-independent basis, Debye-Ang):
   XX=            -11.7551   YY=            -12.6101   ZZ=            -11.8951
   XY=             -0.2583   XZ=             -0.0000   YZ=             -0.0000
 Traceless Quadrupole moment (field-independent basis, Debye-Ang):
   XX=              0.3316   YY=             -0.5233   ZZ=              0.1917
   XY=             -0.2583   XZ=             -0.0000   YZ=             -0.0000
 Octapole moment (field-independent basis, Debye-Ang**2):
  XXX=             -0.1244  YYY=             -0.9960  ZZZ=              0.0000  XYY=             -0.7718
  XXY=             -0.5009  XXZ=             -0.0000  XZZ=             -0.7580  YZZ=              0.4273
  YYZ=             -0.0000  XYZ=             -0.0000
 Hexadecapole moment (field-independent basis, Debye-Ang**3):
 XXXX=            -12.8946 YYYY=            -50.3408 ZZZZ=            -19.8142 XXXY=              2.1491
 XXXZ=              0.0000 YYYX=              1.6857 YYYZ=              0.0000 ZZZX=             -0.0000
 ZZZY=              0.0000 XXYY=            -10.0209 XXZZ=             -5.3765 YYZZ=            -11.3819
 XXYZ=             -0.0000 YYXZ=              0.0000 ZZXY=             -0.0077
 N-N= 2.949155122504D+01 E-N=-3.276617224794D+02  KE= 1.136523394376D+02
 Symmetry A'   KE= 1.069105172083D+02
 Symmetry A"   KE= 6.741822229257D+00
 Calling FoFJK, ICntrl=  10005127 FMM=F ISym2X=1 I1Cent= 0 IOpClX= 0 NMat=1 NMatS=1 NMatT=0.
 ***** Axes restored to original set *****
 -------------------------------------------------------------------
 Center     Atomic                   Forces (Hartrees/Bohr)
 Number     Number              X              Y              Z
 -------------------------------------------------------------------
      1        6           0.032281632   -0.000000000   -0.011759407
      2        1          -0.014443859    0.025347916    0.015306129
      3        1          -0.014443859   -0.025347916    0.015306129
      4        8          -0.003393913    0.000000000   -0.018852850
 -------------------------------------------------------------------
 Cartesian Forces:  Max     0.032281632 RMS     0.017602497

 GradGradGradGradGradGradGradGradGradGradGradGradGradGradGradGradGradGrad
 Berny optimization.
 FormGI is forming the generalized inverse of G from B-inverse, IUseBI=4.
 Internal  Forces:  Max     0.032800613 RMS     0.019059882
 Search for a local minimum.
 Step number   1 out of a maximum of   20
 All quantities printed in internal units (Hartrees-Bohrs-Radians)
 Mixed Optimization -- RFO/linear search
 Second derivative matrix not updated -- first step.
 The second derivative matrix:
                          R1        R2        R3        A1        A2
           R1           0.27324
           R2           0.00000   0.27324
           R3           0.00000   0.00000   0.69925
           A1           0.00000   0.00000   0.00000   0.16000
           A2           0.00000   0.00000   0.00000   0.00000   0.16000
           A3           0.00000   0.00000   0.00000   0.00000   0.00000
           D1           0.00000   0.00000   0.00000   0.00000   0.00000
                          A3        D1
           A3           0.16000
           D1           0.00000   0.03141
 ITU=  0
     Eigenvalues ---    0.05685   0.16000   0.16000   0.27324   0.27324
     Eigenvalues ---    0.69925
 RFO step:  Lambda=-8.57169260D-03 EMin= 5.68495377D-02
 Linear search not attempted -- first point.
 Iteration  1 RMS(Cart)=  0.05431409 RMS(Int)=  0.00161813
 Iteration  2 RMS(Cart)=  0.00125255 RMS(Int)=  0.00055186
 Iteration  3 RMS(Cart)=  0.00000127 RMS(Int)=  0.00055185
 Iteration  4 RMS(Cart)=  0.00000000 RMS(Int)=  0.00055185
 ClnCor:  largest displacement from symmetrization is 5.23D-12 for atom     3.
 Variable       Old X    -DE/DX   Delta X   Delta X   Delta X     New X
                                 (Linear)    (Quad)   (Total)
    R1        2.20341  -0.03280   0.00000  -0.11639  -0.11639   2.08702
    R2        2.20341  -0.03280   0.00000  -0.11639  -0.11639   2.08702
    R3        2.43854  -0.01906   0.00000  -0.02693  -0.02693   2.41161
    A1        1.91083   0.00212   0.00000   0.02854   0.02760   1.93842
    A2        2.00797   0.00081   0.00000   0.01534   0.01468   2.02264
    A3        2.00797   0.00081   0.00000   0.01534   0.01468   2.02264
    D1        2.24561   0.00470   0.00000   0.07182   0.07242   2.31803
         Item               Value     Threshold  Converged?
 Maximum Force            0.032801     0.000450     NO 
 RMS     Force            0.019060     0.000300     NO 
 Maximum Displacement     0.078581     0.001800     NO 
 RMS     Displacement     0.054996     0.001200     NO 
 Predicted change in Energy=-4.438498D-03
 GradGradGradGradGradGradGradGradGradGradGradGradGradGradGradGradGradGrad

                          Input orientation:                          
 ---------------------------------------------------------------------
 Center     Atomic      Atomic             Coordinates (Angstroms)
 Number     Number       Type             X           Y           Z
 ---------------------------------------------------------------------
      1          6           0       -0.050218    0.000000   -0.587069
      2          1           0        0.321839   -0.910514   -1.089310
      3          1           0        0.321839    0.910514   -1.089310
      4          8           0        0.016141   -0.000000    0.687375
 ---------------------------------------------------------------------
                    Distance matrix (angstroms):
                    1          2          3          4
     1  C    0.000000
     2  H    1.104404   0.000000
     3  H    1.104404   1.821027   0.000000
     4  O    1.276170   2.019677   2.019677   0.000000
 Stoichiometry    CH2O
 Framework group  CS[SG(CO),X(H2)]
 Deg. of freedom     4
 Full point group                 CS      NOp   2
 Largest Abelian subgroup         CS      NOp   2
 Largest concise Abelian subgroup CS      NOp   2
                         Standard orientation:                         
 ---------------------------------------------------------------------
 Center     Atomic      Atomic             Coordinates (Angstroms)
 Number     Number       Type             X           Y           Z
 ---------------------------------------------------------------------
      1          6           0        0.049709    0.577808    0.000000
      2          1           0       -0.347961    1.060023    0.910514
      3          1           0       -0.347961    1.060023   -0.910514
      4          8           0        0.049709   -0.698362   -0.000000
 ---------------------------------------------------------------------
 Rotational constants (GHZ):         264.8105118          35.5337270          32.2799017
 Standard basis: TZVP (5D, 7F)
 There are    36 symmetry adapted cartesian basis functions of A'  symmetry.
 There are    16 symmetry adapted cartesian basis functions of A"  symmetry.
 There are    34 symmetry adapted basis functions of A'  symmetry.
 There are    16 symmetry adapted basis functions of A"  symmetry.
    50 basis functions,    86 primitive gaussians,    52 cartesian basis functions
     8 alpha electrons        8 beta electrons
       nuclear repulsion energy        30.1362870384 Hartrees.
 NAtoms=    4 NActive=    4 NUniq=    3 SFac= 1.78D+00 NAtFMM=   60 NAOKFM=F Big=F
 Integral buffers will be    131072 words long.
 Raffenetti 1 integral format.
 Two-electron integral symmetry is turned on.
 One-electron integrals computed using PRISM.
 NBasis=    50 RedAO= T EigKep=  4.60D-03  NBF=    34    16
 NBsUse=    50 1.00D-06 EigRej= -1.00D+00 NBFU=    34    16
 Initial guess from the checkpoint file:  "manual_displacement_CAM-B3LYP.chk"
 B after Tr=    -0.000000   -0.000000    0.000000
         Rot=    0.999978   -0.000000    0.000000    0.006609 Ang=   0.76 deg.
 Initial guess orbital symmetries:
       Occupied  (A') (A') (A') (A') (A") (A') (A') (A")
       Virtual   (A') (A') (A") (A') (A') (A") (A') (A') (A") (A')
                 (A') (A') (A") (A') (A") (A') (A') (A") (A') (A')
                 (A") (A') (A") (A') (A") (A') (A') (A") (A') (A')
                 (A") (A') (A") (A') (A') (A') (A") (A') (A") (A')
                 (A') (A')
 ExpMin= 9.52D-02 ExpMax= 2.70D+04 ExpMxC= 9.22D+02 IAcc=3 IRadAn=         5 AccDes= 0.00D+00
 Harris functional with IExCor=20419 and IRadAn=       5 diagonalized for initial guess.
 HarFok:  IExCor=20419 AccDes= 0.00D+00 IRadAn=         5 IDoV= 1 UseB2=F ITyADJ=14
 ICtDFT=  3500011 ScaDFX=  1.000000  1.000000  1.000000  1.000000
 FoFCou: FMM=F IPFlag=           0 FMFlag=      100000 FMFlg1=           0
         NFxFlg=           0 DoJE=T BraDBF=F KetDBF=T FulRan=T
         wScrn=  0.000000 ICntrl=       500 IOpCl=  0 I1Cent=   200000004 NGrid=           0
         NMat0=    1 NMatS0=      1 NMatT0=    0 NMatD0=    1 NMtDS0=    0 NMtDT0=    0
 Petite list used in FoFCou.
 Keep R1 ints in memory in symmetry-blocked form, NReq=2573813.
 Requested convergence on RMS density matrix=1.00D-08 within 128 cycles.
 Requested convergence on MAX density matrix=1.00D-06.
 Requested convergence on             energy=1.00D-06.
 No special actions if energy rises.
 Integral accuracy reduced to 1.0D-05 until final iterations.
 Initial convergence to 1.0D-05 achieved.  Increase integral accuracy.
 SCF Done:  E(RCAM-B3LYP) =  -114.467314498     A.U. after   12 cycles
            NFock= 12  Conv=0.42D-08     -V/T= 2.0055
 DoSCS=F DFT=T ScalE2(SS,OS)=  1.000000  1.000000
 ExpMin= 9.52D-02 ExpMax= 2.70D+04 ExpMxC= 9.22D+02 IAcc=3 IRadAn=         5 AccDes= 0.00D+00
 HarFok:  IExCor=  205 AccDes= 0.00D+00 IRadAn=         5 IDoV=-2 UseB2=F ITyADJ=14
 ICtDFT= 12500011 ScaDFX=  1.000000  1.000000  1.000000  1.000000
 Range of M.O.s used for correlation:     3    50
 NBasis=    50 NAE=     8 NBE=     8 NFC=     2 NFV=     0
 NROrb=     48 NOA=     6 NOB=     6 NVA=    42 NVB=    42
 Keep R1, R2, and R3 ints in memory in symmetry-blocked form, NReq=2618668.
 Orbital symmetries:
       Occupied  (A') (A') (A') (A') (A") (A') (A') (A")
       Virtual   (A') (A') (A') (A") (A') (A') (A") (A') (A") (A')
                 (A') (A') (A") (A') (A") (A') (A') (A") (A') (A')
                 (A") (A') (A") (A') (A") (A') (A') (A') (A") (A')
                 (A") (A") (A') (A') (A') (A') (A") (A') (A") (A')
                 (A') (A')
 Generating guess from densities on rwf.
 Convergence on wavefunction:    0.000001000000000
 Iteration     1 Dimension     4 NMult     0 NNew      4
 CISAX will form     4 AO SS matrices at one time.
 Iteration     2 Dimension     8 NMult     4 NNew      4
 Iteration     3 Dimension    12 NMult     8 NNew      4
 Iteration     4 Dimension    16 NMult    12 NNew      4
 Iteration     5 Dimension    20 NMult    16 NNew      4
 Iteration     6 Dimension    24 NMult    20 NNew      4
 Iteration     7 Dimension    28 NMult    24 NNew      4
 Iteration     8 Dimension    30 NMult    28 NNew      2
 Iteration     9 Dimension    32 NMult    30 NNew      2
 Iteration    10 Dimension    34 NMult    32 NNew      2
 ***********************************************************************
 Excited states from <AA,BB:AA,BB> singles matrix:
 ***********************************************************************
 
 Ground to excited state transition densities written to RWF  633
 Ground to excited state transition electric dipole moments (Au):
       state          X           Y           Z        Dip. S.      Osc.
         1        -0.0000      0.0000     -0.1163      0.0135      0.0010
         2         0.0294      0.3570     -0.0000      0.1283      0.0235
 Ground to excited state transition velocity dipole moments (Au):
       state          X           Y           Z        Dip. S.      Osc.
         1         0.0000     -0.0000      0.0061      0.0000      0.0002
         2         0.0060     -0.0861      0.0000      0.0074      0.0180
 Ground to excited state transition magnetic dipole moments (Au):
       state          X           Y           Z
         1         0.1033     -1.2140     -0.0000
         2         0.0000     -0.0000      1.4471
 Ground to excited state transition velocity quadrupole moments (Au):
       state          XX          YY          ZZ          XY          XZ          YZ
         1        -0.0000     -0.0000     -0.0000      0.0000     -0.0725      0.0061
         2        -0.0399     -0.0282      0.0107     -0.2845     -0.0000     -0.0000
 <0|del|b> * <b|rxdel|0> + <0|del|b> * <b|delr+rdel|0>
 Rotatory Strengths (R) in cgs (10**-40 erg-esu-cm/Gauss)
       state          XX          YY          ZZ    R(velocity)    E-M Angle
         1         0.0000      0.0000      0.0000      0.0000       90.00
         2         0.0000      0.0000      0.0000      0.0000       90.00
 1/2[<0|r|b>*<b|rxdel|0> + (<0|rxdel|b>*<b|r|0>)*]
 Rotatory Strengths (R) in cgs (10**-40 erg-esu-cm/Gauss)
       state          XX          YY          ZZ     R(length)
         1         0.0000      0.0000     -0.0000     -0.0000
         2        -0.0000      0.0000      0.0000      0.0000
  1/2[<0|del|b>*<b|r|0> + (<0|r|b>*<b|del|0>)*] (Au)
       state          X           Y           Z        Dip. S.   Osc.(frdel)
         1        -0.0000     -0.0000     -0.0007      0.0007      0.0005
         2         0.0002     -0.0307     -0.0000      0.0306      0.0204

 Excitation energies and oscillator strengths:
 
 Excited State   1:      Singlet-A"     2.9054 eV  426.74 nm  f=0.0010  <S**2>=0.000
       8 ->  9         0.70475
 This state for optimization and/or second-order correction.
 Total Energy, E(TD-HF/TD-DFT) =  -114.360544412    
 Copying the excited state density for this state as the 1-particle RhoCI density.
 
 Excited State   2:      Singlet-A'     7.4869 eV  165.60 nm  f=0.0235  <S**2>=0.000
       6 ->  9         0.56407
       7 ->  9        -0.41895
 SavETr:  write IOETrn=   770 NScale= 10 NData=  16 NLR=1 NState=    2 LETran=      46.
          IDoAtm=1111
          Differentiating once with respect to electric field.
                with respect to dipole field.
          Differentiating once with respect to nuclear coordinates.
 Keep R1 ints in memory in symmetry-blocked form, NReq=2576454.
          There are     1 degrees of freedom in the 1st order CPHF.  IDoFFX=0 NUNeed=     1.
 LinEq1:  Iter=  0 NonCon=     1 RMS=5.95D-02 Max=8.91D-01 NDo=     1
 AX will form     1 AO Fock derivatives at one time.
 LinEq1:  Iter=  1 NonCon=     1 RMS=1.49D-02 Max=1.28D-01 NDo=     1
 LinEq1:  Iter=  2 NonCon=     1 RMS=5.36D-03 Max=4.53D-02 NDo=     1
 LinEq1:  Iter=  3 NonCon=     1 RMS=1.79D-03 Max=9.99D-03 NDo=     1
 LinEq1:  Iter=  4 NonCon=     1 RMS=4.30D-04 Max=2.37D-03 NDo=     1
 LinEq1:  Iter=  5 NonCon=     1 RMS=9.05D-05 Max=8.70D-04 NDo=     1
 LinEq1:  Iter=  6 NonCon=     1 RMS=1.76D-05 Max=1.27D-04 NDo=     1
 LinEq1:  Iter=  7 NonCon=     1 RMS=3.58D-06 Max=3.51D-05 NDo=     1
 LinEq1:  Iter=  8 NonCon=     1 RMS=6.40D-07 Max=4.16D-06 NDo=     1
 LinEq1:  Iter=  9 NonCon=     1 RMS=9.43D-08 Max=4.68D-07 NDo=     1
 LinEq1:  Iter= 10 NonCon=     1 RMS=9.61D-09 Max=5.32D-08 NDo=     1
 LinEq1:  Iter= 11 NonCon=     1 RMS=1.62D-09 Max=1.10D-08 NDo=     1
 LinEq1:  Iter= 12 NonCon=     1 RMS=1.66D-10 Max=9.20D-10 NDo=     1
 LinEq1:  Iter= 13 NonCon=     0 RMS=1.49D-11 Max=7.46D-11 NDo=     1
 Linear equations converged to 1.000D-10 1.000D-09 after    13 iterations.
 End of Minotr F.D. properties file   721 does not exist.
 End of Minotr F.D. properties file   722 does not exist.
 End of Minotr F.D. properties file   788 does not exist.
 Calling FoFJK, ICntrl=  10005127 FMM=F ISym2X=1 I1Cent= 0 IOpClX= 0 NMat=1 NMatS=1 NMatT=0.
 ***** Axes restored to original set *****
 -------------------------------------------------------------------
 Center     Atomic                   Forces (Hartrees/Bohr)
 Number     Number              X              Y              Z
 -------------------------------------------------------------------
      1        6           0.009866387   -0.000000000   -0.006423954
      2        1          -0.003959100    0.000252687    0.001745891
      3        1          -0.003959100   -0.000252687    0.001745891
      4        8          -0.001948188    0.000000000    0.002932172
 -------------------------------------------------------------------
 Cartesian Forces:  Max     0.009866387 RMS     0.003964202

 GradGradGradGradGradGradGradGradGradGradGradGradGradGradGradGradGradGrad
 Berny optimization.
 Using GEDIIS/GDIIS optimizer.
 FormGI is forming the generalized inverse of G from B-inverse, IUseBI=4.
 Internal  Forces:  Max     0.005180191 RMS     0.002741591
 Search for a local minimum.
 Step number   2 out of a maximum of   20
 All quantities printed in internal units (Hartrees-Bohrs-Radians)
 Mixed Optimization -- RFO/linear search
 Update second derivatives using D2CorX and points    1    2
 DE= -4.97D-03 DEPred=-4.44D-03 R= 1.12D+00
 TightC=F SS=  1.41D+00  RLast= 1.85D-01 DXNew= 5.0454D-01 5.5526D-01
 Trust test= 1.12D+00 RLast= 1.85D-01 DXMaxT set to 5.05D-01
 The second derivative matrix:
                          R1        R2        R3        A1        A2
           R1           0.27230
           R2          -0.00093   0.27230
           R3           0.01479   0.01479   0.71904
           A1           0.01848   0.01848   0.01113   0.15766
           A2           0.00806   0.00806   0.00465  -0.00127   0.15934
           A3           0.00806   0.00806   0.00465  -0.00127  -0.00066
           D1           0.01067   0.01067   0.00656  -0.00119  -0.00066
                          A3        D1
           A3           0.15934
           D1          -0.00066   0.03082
 ITU=  1  0
 Use linear search instead of GDIIS.
     Eigenvalues ---    0.04768   0.15954   0.16000   0.27324   0.27372
     Eigenvalues ---    0.72026
 RFO step:  Lambda=-5.96155094D-04 EMin= 4.76762877D-02
 Quartic linear search produced a step of  0.10127.
 Iteration  1 RMS(Cart)=  0.02472690 RMS(Int)=  0.00144919
 Iteration  2 RMS(Cart)=  0.00087535 RMS(Int)=  0.00115313
 Iteration  3 RMS(Cart)=  0.00000015 RMS(Int)=  0.00115313
 ClnCor:  largest displacement from symmetrization is 3.64D-13 for atom     3.
 Variable       Old X    -DE/DX   Delta X   Delta X   Delta X     New X
                                 (Linear)    (Quad)   (Total)
    R1        2.08702  -0.00234  -0.01179  -0.00289  -0.01468   2.07234
    R2        2.08702  -0.00234  -0.01179  -0.00289  -0.01468   2.07234
    R3        2.41161   0.00283  -0.00273   0.00563   0.00291   2.41452
    A1        1.93842   0.00250   0.00279   0.03618   0.03704   1.97547
    A2        2.02264   0.00056   0.00149   0.01760   0.01760   2.04025
    A3        2.02264   0.00056   0.00149   0.01760   0.01760   2.04025
    D1        2.31803   0.00518   0.00733   0.09597   0.10440   2.42243
         Item               Value     Threshold  Converged?
 Maximum Force            0.005180     0.000450     NO 
 RMS     Force            0.002742     0.000300     NO 
 Maximum Displacement     0.054782     0.001800     NO 
 RMS     Displacement     0.024573     0.001200     NO 
 Predicted change in Energy=-4.106342D-04
 GradGradGradGradGradGradGradGradGradGradGradGradGradGradGradGradGradGrad

                          Input orientation:                          
 ---------------------------------------------------------------------
 Center     Atomic      Atomic             Coordinates (Angstroms)
 Number     Number       Type             X           Y           Z
 ---------------------------------------------------------------------
      1          6           0       -0.021229    0.000000   -0.587069
      2          1           0        0.311694   -0.915449   -1.090781
      3          1           0        0.311694    0.915449   -1.090781
      4          8           0        0.007441   -0.000000    0.690318
 ---------------------------------------------------------------------
                    Distance matrix (angstroms):
                    1          2          3          4
     1  C    0.000000
     2  H    1.096636   0.000000
     3  H    1.096636   1.830899   0.000000
     4  O    1.277709   2.025569   2.025569   0.000000
 Stoichiometry    CH2O
 Framework group  CS[SG(CO),X(H2)]
 Deg. of freedom     4
 Full point group                 CS      NOp   2
 Largest Abelian subgroup         CS      NOp   2
 Largest concise Abelian subgroup CS      NOp   2
                         Standard orientation:                         
 ---------------------------------------------------------------------
 Center     Atomic      Atomic             Coordinates (Angstroms)
 Number     Number       Type             X           Y           Z
 ---------------------------------------------------------------------
      1          6           0        0.043018    0.576840    0.000000
      2          1           0       -0.301123    1.072954    0.915449
      3          1           0       -0.301123    1.072954   -0.915449
      4          8           0        0.043018   -0.700869   -0.000000
 ---------------------------------------------------------------------
 Rotational constants (GHZ):         270.7742446          35.4838177          32.0783499
 Standard basis: TZVP (5D, 7F)
 There are    36 symmetry adapted cartesian basis functions of A'  symmetry.
 There are    16 symmetry adapted cartesian basis functions of A"  symmetry.
 There are    34 symmetry adapted basis functions of A'  symmetry.
 There are    16 symmetry adapted basis functions of A"  symmetry.
    50 basis functions,    86 primitive gaussians,    52 cartesian basis functions
     8 alpha electrons        8 beta electrons
       nuclear repulsion energy        30.1392916313 Hartrees.
 NAtoms=    4 NActive=    4 NUniq=    3 SFac= 1.78D+00 NAtFMM=   60 NAOKFM=F Big=F
 Integral buffers will be    131072 words long.
 Raffenetti 1 integral format.
 Two-electron integral symmetry is turned on.
 One-electron integrals computed using PRISM.
 NBasis=    50 RedAO= T EigKep=  4.76D-03  NBF=    34    16
 NBsUse=    50 1.00D-06 EigRej= -1.00D+00 NBFU=    34    16
 Initial guess from the checkpoint file:  "manual_displacement_CAM-B3LYP.chk"
 B after Tr=    -0.000000    0.000000   -0.000000
         Rot=    0.999973    0.000000   -0.000000    0.007341 Ang=   0.84 deg.
 Initial guess orbital symmetries:
       Occupied  (A') (A') (A') (A') (A") (A') (A') (A")
       Virtual   (A') (A') (A') (A") (A') (A') (A") (A') (A") (A')
                 (A') (A') (A") (A') (A") (A') (A') (A") (A') (A')
                 (A") (A') (A") (A') (A") (A') (A') (A') (A") (A')
                 (A") (A") (A') (A') (A') (A') (A") (A') (A") (A')
                 (A') (A')
 ExpMin= 9.52D-02 ExpMax= 2.70D+04 ExpMxC= 9.22D+02 IAcc=3 IRadAn=         5 AccDes= 0.00D+00
 Harris functional with IExCor=20419 and IRadAn=       5 diagonalized for initial guess.
 HarFok:  IExCor=20419 AccDes= 0.00D+00 IRadAn=         5 IDoV= 1 UseB2=F ITyADJ=14
 ICtDFT=  3500011 ScaDFX=  1.000000  1.000000  1.000000  1.000000
 FoFCou: FMM=F IPFlag=           0 FMFlag=      100000 FMFlg1=           0
         NFxFlg=           0 DoJE=T BraDBF=F KetDBF=T FulRan=T
         wScrn=  0.000000 ICntrl=       500 IOpCl=  0 I1Cent=   200000004 NGrid=           0
         NMat0=    1 NMatS0=      1 NMatT0=    0 NMatD0=    1 NMtDS0=    0 NMtDT0=    0
 Petite list used in FoFCou.
 Keep R1 ints in memory in symmetry-blocked form, NReq=2573813.
 Requested convergence on RMS density matrix=1.00D-08 within 128 cycles.
 Requested convergence on MAX density matrix=1.00D-06.
 Requested convergence on             energy=1.00D-06.
 No special actions if energy rises.
 Integral accuracy reduced to 1.0D-05 until final iterations.
 Initial convergence to 1.0D-05 achieved.  Increase integral accuracy.
 SCF Done:  E(RCAM-B3LYP) =  -114.472759231     A.U. after   11 cycles
            NFock= 11  Conv=0.98D-08     -V/T= 2.0055
 DoSCS=F DFT=T ScalE2(SS,OS)=  1.000000  1.000000
 ExpMin= 9.52D-02 ExpMax= 2.70D+04 ExpMxC= 9.22D+02 IAcc=3 IRadAn=         5 AccDes= 0.00D+00
 HarFok:  IExCor=  205 AccDes= 0.00D+00 IRadAn=         5 IDoV=-2 UseB2=F ITyADJ=14
 ICtDFT= 12500011 ScaDFX=  1.000000  1.000000  1.000000  1.000000
 Range of M.O.s used for correlation:     3    50
 NBasis=    50 NAE=     8 NBE=     8 NFC=     2 NFV=     0
 NROrb=     48 NOA=     6 NOB=     6 NVA=    42 NVB=    42
 Keep R1, R2, and R3 ints in memory in symmetry-blocked form, NReq=2618668.
 Orbital symmetries:
       Occupied  (A') (A') (A') (A') (A") (A') (A') (A")
       Virtual   (A') (A') (A') (A") (A') (A') (A") (A') (A") (A')
                 (A') (A') (A") (A') (A") (A') (A') (A") (A') (A')
                 (A") (A') (A") (A') (A") (A') (A') (A") (A') (A')
                 (A") (A') (A") (A') (A') (A') (A") (A') (A") (A')
                 (A') (A')
 Generating guess from densities on rwf.
 Convergence on wavefunction:    0.000001000000000
 Iteration     1 Dimension     4 NMult     0 NNew      4
 CISAX will form     4 AO SS matrices at one time.
 Iteration     2 Dimension     8 NMult     4 NNew      4
 Iteration     3 Dimension    12 NMult     8 NNew      4
 Iteration     4 Dimension    16 NMult    12 NNew      4
 Iteration     5 Dimension    20 NMult    16 NNew      4
 Iteration     6 Dimension    24 NMult    20 NNew      4
 Iteration     7 Dimension    28 NMult    24 NNew      4
 Iteration     8 Dimension    30 NMult    28 NNew      2
 Iteration     9 Dimension    32 NMult    30 NNew      2
 Iteration    10 Dimension    34 NMult    32 NNew      2
 ***********************************************************************
 Excited states from <AA,BB:AA,BB> singles matrix:
 ***********************************************************************
 
 Ground to excited state transition densities written to RWF  633
 Ground to excited state transition electric dipole moments (Au):
       state          X           Y           Z        Dip. S.      Osc.
         1         0.0000      0.0000     -0.1051      0.0110      0.0008
         2         0.0166      0.3457      0.0000      0.1198      0.0224
 Ground to excited state transition velocity dipole moments (Au):
       state          X           Y           Z        Dip. S.      Osc.
         1         0.0000     -0.0000      0.0051      0.0000      0.0002
         2         0.0099     -0.0850      0.0000      0.0073      0.0174
 Ground to excited state transition magnetic dipole moments (Au):
       state          X           Y           Z
         1         0.0911     -1.2062     -0.0000
         2        -0.0000     -0.0000      1.4568
 Ground to excited state transition velocity quadrupole moments (Au):
       state          XX          YY          ZZ          XY          XZ          YZ
         1        -0.0000     -0.0000      0.0000      0.0000     -0.0741      0.0047
         2        -0.0458     -0.0167      0.0109     -0.2844      0.0000     -0.0000
 <0|del|b> * <b|rxdel|0> + <0|del|b> * <b|delr+rdel|0>
 Rotatory Strengths (R) in cgs (10**-40 erg-esu-cm/Gauss)
       state          XX          YY          ZZ    R(velocity)    E-M Angle
         1         0.0000     -0.0000      0.0000      0.0000       90.00
         2         0.0000      0.0000      0.0000      0.0000       90.00
 1/2[<0|r|b>*<b|rxdel|0> + (<0|rxdel|b>*<b|r|0>)*]
 Rotatory Strengths (R) in cgs (10**-40 erg-esu-cm/Gauss)
       state          XX          YY          ZZ     R(length)
         1        -0.0000      0.0000     -0.0000      0.0000
         2         0.0000      0.0000     -0.0000      0.0000
  1/2[<0|del|b>*<b|r|0> + (<0|r|b>*<b|del|0>)*] (Au)
       state          X           Y           Z        Dip. S.   Osc.(frdel)
         1         0.0000     -0.0000     -0.0005      0.0005      0.0004
         2         0.0002     -0.0294      0.0000      0.0292      0.0195

 Excitation energies and oscillator strengths:
 
 Excited State   1:      Singlet-A"     3.0391 eV  407.96 nm  f=0.0008  <S**2>=0.000
       8 ->  9         0.70478
 This state for optimization and/or second-order correction.
 Total Energy, E(TD-HF/TD-DFT) =  -114.361074068    
 Copying the excited state density for this state as the 1-particle RhoCI density.
 
 Excited State   2:      Singlet-A'     7.6246 eV  162.61 nm  f=0.0224  <S**2>=0.000
       6 ->  9         0.57971
       7 ->  9        -0.39682
 SavETr:  write IOETrn=   770 NScale= 10 NData=  16 NLR=1 NState=    2 LETran=      46.
          IDoAtm=1111
          Differentiating once with respect to electric field.
                with respect to dipole field.
          Differentiating once with respect to nuclear coordinates.
 Keep R1 ints in memory in symmetry-blocked form, NReq=2576454.
          There are     1 degrees of freedom in the 1st order CPHF.  IDoFFX=0 NUNeed=     1.
 LinEq1:  Iter=  0 NonCon=     1 RMS=6.01D-02 Max=9.00D-01 NDo=     1
 AX will form     1 AO Fock derivatives at one time.
 LinEq1:  Iter=  1 NonCon=     1 RMS=1.43D-02 Max=1.15D-01 NDo=     1
 LinEq1:  Iter=  2 NonCon=     1 RMS=5.15D-03 Max=4.38D-02 NDo=     1
 LinEq1:  Iter=  3 NonCon=     1 RMS=1.71D-03 Max=1.00D-02 NDo=     1
 LinEq1:  Iter=  4 NonCon=     1 RMS=4.02D-04 Max=2.34D-03 NDo=     1
 LinEq1:  Iter=  5 NonCon=     1 RMS=8.11D-05 Max=7.81D-04 NDo=     1
 LinEq1:  Iter=  6 NonCon=     1 RMS=1.59D-05 Max=1.14D-04 NDo=     1
 LinEq1:  Iter=  7 NonCon=     1 RMS=3.38D-06 Max=3.54D-05 NDo=     1
 LinEq1:  Iter=  8 NonCon=     1 RMS=5.96D-07 Max=3.92D-06 NDo=     1
 LinEq1:  Iter=  9 NonCon=     1 RMS=8.99D-08 Max=4.41D-07 NDo=     1
 LinEq1:  Iter= 10 NonCon=     1 RMS=8.92D-09 Max=5.24D-08 NDo=     1
 LinEq1:  Iter= 11 NonCon=     1 RMS=1.47D-09 Max=9.43D-09 NDo=     1
 LinEq1:  Iter= 12 NonCon=     1 RMS=1.58D-10 Max=8.23D-10 NDo=     1
 LinEq1:  Iter= 13 NonCon=     0 RMS=1.39D-11 Max=6.75D-11 NDo=     1
 Linear equations converged to 1.000D-10 1.000D-09 after    13 iterations.
 End of Minotr F.D. properties file   721 does not exist.
 End of Minotr F.D. properties file   722 does not exist.
 End of Minotr F.D. properties file   788 does not exist.
 Calling FoFJK, ICntrl=  10005127 FMM=F ISym2X=1 I1Cent= 0 IOpClX= 0 NMat=1 NMatS=1 NMatT=0.
 ***** Axes restored to original set *****
 -------------------------------------------------------------------
 Center     Atomic                   Forces (Hartrees/Bohr)
 Number     Number              X              Y              Z
 -------------------------------------------------------------------
      1        6           0.004097314   -0.000000000   -0.004596830
      2        1          -0.001645002   -0.002046622    0.000812398
      3        1          -0.001645002    0.002046622    0.000812398
      4        8          -0.000807309    0.000000000    0.002972034
 -------------------------------------------------------------------
 Cartesian Forces:  Max     0.004596830 RMS     0.002282413

 GradGradGradGradGradGradGradGradGradGradGradGradGradGradGradGradGradGrad
 Berny optimization.
 Using GEDIIS/GDIIS optimizer.
 FormGI is forming the generalized inverse of G from B-inverse, IUseBI=4.
 Internal  Forces:  Max     0.002953184 RMS     0.001898676
 Search for a local minimum.
 Step number   3 out of a maximum of   20
 All quantities printed in internal units (Hartrees-Bohrs-Radians)
 Mixed Optimization -- RFO/linear search
 Update second derivatives using D2CorX and points    1    2    3
 DE= -5.30D-04 DEPred=-4.11D-04 R= 1.29D+00
 TightC=F SS=  1.41D+00  RLast= 1.15D-01 DXNew= 8.4853D-01 3.4638D-01
 Trust test= 1.29D+00 RLast= 1.15D-01 DXMaxT set to 5.05D-01
 The second derivative matrix:
                          R1        R2        R3        A1        A2
           R1           0.30522
           R2           0.03199   0.30522
           R3           0.03575   0.03575   0.71625
           A1           0.04609   0.04609  -0.00174   0.12142
           A2           0.00642   0.00642  -0.00571  -0.02024   0.15405
           A3           0.00642   0.00642  -0.00571  -0.02024  -0.00595
           D1          -0.00248  -0.00248  -0.00856  -0.02424  -0.00390
                          A3        D1
           A3           0.15405
           D1          -0.00390   0.03296
 ITU=  1  1  0
 Use linear search instead of GDIIS.
     Eigenvalues ---    0.02451   0.15736   0.16000   0.27324   0.33947
     Eigenvalues ---    0.72314
 RFO step:  Lambda=-2.04365503D-04 EMin= 2.45084826D-02
 Quartic linear search produced a step of  1.06501.
 Iteration  1 RMS(Cart)=  0.03468635 RMS(Int)=  0.00319965
 Iteration  2 RMS(Cart)=  0.00146360 RMS(Int)=  0.00284021
 Iteration  3 RMS(Cart)=  0.00000096 RMS(Int)=  0.00284021
 ClnCor:  largest displacement from symmetrization is 1.38D-13 for atom     3.
 Variable       Old X    -DE/DX   Delta X   Delta X   Delta X     New X
                                 (Linear)    (Quad)   (Total)
    R1        2.07234   0.00084  -0.01563   0.00867  -0.00696   2.06538
    R2        2.07234   0.00084  -0.01563   0.00867  -0.00696   2.06538
    R3        2.41452   0.00295   0.00310   0.00380   0.00690   2.42142
    A1        1.97547   0.00260   0.03945   0.02653   0.06136   2.03682
    A2        2.04025  -0.00068   0.01875  -0.00592   0.00894   2.04919
    A3        2.04025  -0.00068   0.01875  -0.00592   0.00894   2.04919
    D1        2.42243   0.00273   0.11119   0.03056   0.14397   2.56639
         Item               Value     Threshold  Converged?
 Maximum Force            0.002953     0.000450     NO 
 RMS     Force            0.001899     0.000300     NO 
 Maximum Displacement     0.069955     0.001800     NO 
 RMS     Displacement     0.034234     0.001200     NO 
 Predicted change in Energy=-2.287916D-04
 GradGradGradGradGradGradGradGradGradGradGradGradGradGradGradGradGradGrad

                          Input orientation:                          
 ---------------------------------------------------------------------
 Center     Atomic      Atomic             Coordinates (Angstroms)
 Number     Number       Type             X           Y           Z
 ---------------------------------------------------------------------
      1          6           0        0.015790    0.000000   -0.590307
      2          1           0        0.298167   -0.930404   -1.089463
      3          1           0        0.298167    0.930404   -1.089463
      4          8           0       -0.002523    0.000000    0.690921
 ---------------------------------------------------------------------
                    Distance matrix (angstroms):
                    1          2          3          4
     1  C    0.000000
     2  H    1.092953   0.000000
     3  H    1.092953   1.860809   0.000000
     4  O    1.281359   2.031215   2.031215   0.000000
 Stoichiometry    CH2O
 Framework group  CS[SG(CO),X(H2)]
 Deg. of freedom     4
 Full point group                 CS      NOp   2
 Largest Abelian subgroup         CS      NOp   2
 Largest concise Abelian subgroup CS      NOp   2
                         Standard orientation:                         
 ---------------------------------------------------------------------
 Center     Atomic      Atomic             Coordinates (Angstroms)
 Number     Number       Type             X           Y           Z
 ---------------------------------------------------------------------
      1          6           0        0.034402    0.577787   -0.000000
      2          1           0       -0.240812    1.080928    0.930404
      3          1           0       -0.240812    1.080928   -0.930404
      4          8           0        0.034402   -0.703572    0.000000
 ---------------------------------------------------------------------
 Rotational constants (GHZ):         271.9853930          35.4192980          31.7847256
 Standard basis: TZVP (5D, 7F)
 There are    36 symmetry adapted cartesian basis functions of A'  symmetry.
 There are    16 symmetry adapted cartesian basis functions of A"  symmetry.
 There are    34 symmetry adapted basis functions of A'  symmetry.
 There are    16 symmetry adapted basis functions of A"  symmetry.
    50 basis functions,    86 primitive gaussians,    52 cartesian basis functions
     8 alpha electrons        8 beta electrons
       nuclear repulsion energy        30.0859097658 Hartrees.
 NAtoms=    4 NActive=    4 NUniq=    3 SFac= 1.78D+00 NAtFMM=   60 NAOKFM=F Big=F
 Integral buffers will be    131072 words long.
 Raffenetti 1 integral format.
 Two-electron integral symmetry is turned on.
 One-electron integrals computed using PRISM.
 NBasis=    50 RedAO= T EigKep=  5.02D-03  NBF=    34    16
 NBsUse=    50 1.00D-06 EigRej= -1.00D+00 NBFU=    34    16
 Initial guess from the checkpoint file:  "manual_displacement_CAM-B3LYP.chk"
 B after Tr=     0.000000   -0.000000    0.000000
         Rot=    0.999959    0.000000   -0.000000    0.009097 Ang=   1.04 deg.
 Initial guess orbital symmetries:
       Occupied  (A') (A') (A') (A') (A") (A') (A') (A")
       Virtual   (A') (A') (A') (A") (A') (A') (A") (A') (A") (A')
                 (A') (A') (A") (A') (A") (A') (A') (A") (A') (A')
                 (A") (A') (A") (A') (A") (A') (A') (A") (A') (A')
                 (A") (A') (A") (A') (A') (A') (A") (A') (A") (A')
                 (A') (A')
 ExpMin= 9.52D-02 ExpMax= 2.70D+04 ExpMxC= 9.22D+02 IAcc=3 IRadAn=         5 AccDes= 0.00D+00
 Harris functional with IExCor=20419 and IRadAn=       5 diagonalized for initial guess.
 HarFok:  IExCor=20419 AccDes= 0.00D+00 IRadAn=         5 IDoV= 1 UseB2=F ITyADJ=14
 ICtDFT=  3500011 ScaDFX=  1.000000  1.000000  1.000000  1.000000
 FoFCou: FMM=F IPFlag=           0 FMFlag=      100000 FMFlg1=           0
         NFxFlg=           0 DoJE=T BraDBF=F KetDBF=T FulRan=T
         wScrn=  0.000000 ICntrl=       500 IOpCl=  0 I1Cent=   200000004 NGrid=           0
         NMat0=    1 NMatS0=      1 NMatT0=    0 NMatD0=    1 NMtDS0=    0 NMtDT0=    0
 Petite list used in FoFCou.
 Keep R1 ints in memory in symmetry-blocked form, NReq=2573813.
 Requested convergence on RMS density matrix=1.00D-08 within 128 cycles.
 Requested convergence on MAX density matrix=1.00D-06.
 Requested convergence on             energy=1.00D-06.
 No special actions if energy rises.
 Integral accuracy reduced to 1.0D-05 until final iterations.
 Initial convergence to 1.0D-05 achieved.  Increase integral accuracy.
 SCF Done:  E(RCAM-B3LYP) =  -114.478153103     A.U. after   11 cycles
            NFock= 11  Conv=0.98D-08     -V/T= 2.0056
 DoSCS=F DFT=T ScalE2(SS,OS)=  1.000000  1.000000
 ExpMin= 9.52D-02 ExpMax= 2.70D+04 ExpMxC= 9.22D+02 IAcc=3 IRadAn=         5 AccDes= 0.00D+00
 HarFok:  IExCor=  205 AccDes= 0.00D+00 IRadAn=         5 IDoV=-2 UseB2=F ITyADJ=14
 ICtDFT= 12500011 ScaDFX=  1.000000  1.000000  1.000000  1.000000
 Range of M.O.s used for correlation:     3    50
 NBasis=    50 NAE=     8 NBE=     8 NFC=     2 NFV=     0
 NROrb=     48 NOA=     6 NOB=     6 NVA=    42 NVB=    42
 Keep R1, R2, and R3 ints in memory in symmetry-blocked form, NReq=2618668.
 Orbital symmetries:
       Occupied  (A') (A') (A') (A') (A") (A') (A') (A")
       Virtual   (A') (A') (A') (A") (A') (A') (A") (A') (A') (A")
                 (A') (A') (A") (A') (A") (A') (A') (A") (A') (A')
                 (A") (A') (A") (A') (A") (A') (A') (A") (A') (A')
                 (A") (A') (A") (A') (A') (A") (A') (A') (A") (A')
                 (A') (A')
 Generating guess from densities on rwf.
 Convergence on wavefunction:    0.000001000000000
 Iteration     1 Dimension     4 NMult     0 NNew      4
 CISAX will form     4 AO SS matrices at one time.
 Iteration     2 Dimension     8 NMult     4 NNew      4
 Iteration     3 Dimension    12 NMult     8 NNew      4
 Iteration     4 Dimension    16 NMult    12 NNew      4
 Iteration     5 Dimension    20 NMult    16 NNew      4
 Iteration     6 Dimension    24 NMult    20 NNew      4
 Iteration     7 Dimension    28 NMult    24 NNew      4
 Iteration     8 Dimension    30 NMult    28 NNew      2
 Iteration     9 Dimension    32 NMult    30 NNew      2
 Iteration    10 Dimension    34 NMult    32 NNew      2
 ***********************************************************************
 Excited states from <AA,BB:AA,BB> singles matrix:
 ***********************************************************************
 
 Ground to excited state transition densities written to RWF  633
 Ground to excited state transition electric dipole moments (Au):
       state          X           Y           Z        Dip. S.      Osc.
         1        -0.0000      0.0000     -0.0898      0.0081      0.0006
         2        -0.0005      0.3163     -0.0000      0.1000      0.0190
 Ground to excited state transition velocity dipole moments (Au):
       state          X           Y           Z        Dip. S.      Osc.
         1         0.0000     -0.0000      0.0036      0.0000      0.0001
         2         0.0154     -0.0791     -0.0000      0.0065      0.0152
 Ground to excited state transition magnetic dipole moments (Au):
       state          X           Y           Z
         1         0.0761     -1.1982     -0.0000
         2        -0.0000      0.0000      1.4824
 Ground to excited state transition velocity quadrupole moments (Au):
       state          XX          YY          ZZ          XY          XZ          YZ
         1         0.0000      0.0000      0.0000      0.0000     -0.0757      0.0031
         2        -0.0490     -0.0045      0.0115     -0.2831      0.0000      0.0000
 <0|del|b> * <b|rxdel|0> + <0|del|b> * <b|delr+rdel|0>
 Rotatory Strengths (R) in cgs (10**-40 erg-esu-cm/Gauss)
       state          XX          YY          ZZ    R(velocity)    E-M Angle
         1         0.0000      0.0000      0.0000      0.0000       90.00
         2        -0.0000     -0.0000     -0.0000     -0.0000       90.00
 1/2[<0|r|b>*<b|rxdel|0> + (<0|rxdel|b>*<b|r|0>)*]
 Rotatory Strengths (R) in cgs (10**-40 erg-esu-cm/Gauss)
       state          XX          YY          ZZ     R(length)
         1         0.0000      0.0000     -0.0000      0.0000
         2        -0.0000     -0.0000      0.0000      0.0000
  1/2[<0|del|b>*<b|r|0> + (<0|r|b>*<b|del|0>)*] (Au)
       state          X           Y           Z        Dip. S.   Osc.(frdel)
         1        -0.0000     -0.0000     -0.0003      0.0003      0.0002
         2        -0.0000     -0.0250      0.0000      0.0250      0.0167

 Excitation energies and oscillator strengths:
 
 Excited State   1:      Singlet-A"     3.1774 eV  390.21 nm  f=0.0006  <S**2>=0.000
       8 ->  9         0.70488
 This state for optimization and/or second-order correction.
 Total Energy, E(TD-HF/TD-DFT) =  -114.361387554    
 Copying the excited state density for this state as the 1-particle RhoCI density.
 
 Excited State   2:      Singlet-A'     7.7564 eV  159.85 nm  f=0.0190  <S**2>=0.000
       6 ->  9         0.60599
       7 ->  9        -0.35545
 SavETr:  write IOETrn=   770 NScale= 10 NData=  16 NLR=1 NState=    2 LETran=      46.
          IDoAtm=1111
          Differentiating once with respect to electric field.
                with respect to dipole field.
          Differentiating once with respect to nuclear coordinates.
 Keep R1 ints in memory in symmetry-blocked form, NReq=2576454.
          There are     1 degrees of freedom in the 1st order CPHF.  IDoFFX=0 NUNeed=     1.
 LinEq1:  Iter=  0 NonCon=     1 RMS=6.11D-02 Max=9.15D-01 NDo=     1
 AX will form     1 AO Fock derivatives at one time.
 LinEq1:  Iter=  1 NonCon=     1 RMS=1.36D-02 Max=9.61D-02 NDo=     1
 LinEq1:  Iter=  2 NonCon=     1 RMS=4.95D-03 Max=4.23D-02 NDo=     1
 LinEq1:  Iter=  3 NonCon=     1 RMS=1.64D-03 Max=9.95D-03 NDo=     1
 LinEq1:  Iter=  4 NonCon=     1 RMS=3.71D-04 Max=2.35D-03 NDo=     1
 LinEq1:  Iter=  5 NonCon=     1 RMS=7.02D-05 Max=6.48D-04 NDo=     1
 LinEq1:  Iter=  6 NonCon=     1 RMS=1.39D-05 Max=9.62D-05 NDo=     1
 LinEq1:  Iter=  7 NonCon=     1 RMS=3.12D-06 Max=3.50D-05 NDo=     1
 LinEq1:  Iter=  8 NonCon=     1 RMS=5.51D-07 Max=3.63D-06 NDo=     1
 LinEq1:  Iter=  9 NonCon=     1 RMS=8.65D-08 Max=4.05D-07 NDo=     1
 LinEq1:  Iter= 10 NonCon=     1 RMS=8.40D-09 Max=4.94D-08 NDo=     1
 LinEq1:  Iter= 11 NonCon=     1 RMS=1.29D-09 Max=7.24D-09 NDo=     1
 LinEq1:  Iter= 12 NonCon=     1 RMS=1.49D-10 Max=8.01D-10 NDo=     1
 LinEq1:  Iter= 13 NonCon=     0 RMS=1.29D-11 Max=6.63D-11 NDo=     1
 Linear equations converged to 1.000D-10 1.000D-09 after    13 iterations.
 End of Minotr F.D. properties file   721 does not exist.
 End of Minotr F.D. properties file   722 does not exist.
 End of Minotr F.D. properties file   788 does not exist.
 Calling FoFJK, ICntrl=  10005127 FMM=F ISym2X=1 I1Cent= 0 IOpClX= 0 NMat=1 NMatS=1 NMatT=0.
 ***** Axes restored to original set *****
 -------------------------------------------------------------------
 Center     Atomic                   Forces (Hartrees/Bohr)
 Number     Number              X              Y              Z
 -------------------------------------------------------------------
      1        6           0.000275771   -0.000000000   -0.001904647
      2        1          -0.000098497   -0.001309915    0.000053639
      3        1          -0.000098497    0.001309915    0.000053639
      4        8          -0.000078776   -0.000000000    0.001797369
 -------------------------------------------------------------------
 Cartesian Forces:  Max     0.001904647 RMS     0.000930832

 GradGradGradGradGradGradGradGradGradGradGradGradGradGradGradGradGradGrad
 Berny optimization.
 Using GEDIIS/GDIIS optimizer.
 FormGI is forming the generalized inverse of G from B-inverse, IUseBI=4.
 Internal  Forces:  Max     0.001798310 RMS     0.001000290
 Search for a local minimum.
 Step number   4 out of a maximum of   20
 All quantities printed in internal units (Hartrees-Bohrs-Radians)
 Mixed Optimization -- RFO/linear search
 Update second derivatives using D2CorX and points    1    2    3    4
 DE= -3.13D-04 DEPred=-2.29D-04 R= 1.37D+00
 TightC=F SS=  1.41D+00  RLast= 1.57D-01 DXNew= 8.4853D-01 4.7239D-01
 Trust test= 1.37D+00 RLast= 1.57D-01 DXMaxT set to 5.05D-01
 The second derivative matrix:
                          R1        R2        R3        A1        A2
           R1           0.28633
           R2           0.01310   0.28633
           R3           0.02099   0.02099   0.69754
           A1           0.02186   0.02186  -0.02673   0.10751
           A2           0.00282   0.00282  -0.00695  -0.02002   0.15423
           A3           0.00282   0.00282  -0.00695  -0.02002  -0.00577
           D1           0.00221   0.00221  -0.01111  -0.02856  -0.00161
                          A3        D1
           A3           0.15423
           D1          -0.00161   0.02933
 ITU=  1  1  1  0
 Use linear search instead of GDIIS.
     Eigenvalues ---    0.01764   0.15528   0.16000   0.27324   0.30042
     Eigenvalues ---    0.70044
 RFO step:  Lambda=-1.41330190D-05 EMin= 1.76359859D-02
 Quartic linear search produced a step of  0.30271.
 Iteration  1 RMS(Cart)=  0.01080399 RMS(Int)=  0.00065274
 Iteration  2 RMS(Cart)=  0.00012067 RMS(Int)=  0.00063820
 Iteration  3 RMS(Cart)=  0.00000006 RMS(Int)=  0.00063820
 ClnCor:  largest displacement from symmetrization is 2.06D-13 for atom     3.
 Variable       Old X    -DE/DX   Delta X   Delta X   Delta X     New X
                                 (Linear)    (Quad)   (Total)
    R1        2.06538   0.00107  -0.00211   0.00350   0.00139   2.06677
    R2        2.06538   0.00107  -0.00211   0.00350   0.00139   2.06677
    R3        2.42142   0.00180   0.00209   0.00189   0.00398   2.42540
    A1        2.03682   0.00096   0.01857   0.00261   0.02015   2.05698
    A2        2.04919  -0.00046   0.00271  -0.00226  -0.00044   2.04874
    A3        2.04919  -0.00046   0.00271  -0.00226  -0.00044   2.04874
    D1        2.56639   0.00039   0.04358  -0.00249   0.04156   2.60795
         Item               Value     Threshold  Converged?
 Maximum Force            0.001798     0.000450     NO 
 RMS     Force            0.001000     0.000300     NO 
 Maximum Displacement     0.019484     0.001800     NO 
 RMS     Displacement     0.010781     0.001200     NO 
 Predicted change in Energy=-1.864088D-05
 GradGradGradGradGradGradGradGradGradGradGradGradGradGradGradGradGradGrad

                          Input orientation:                          
 ---------------------------------------------------------------------
 Center     Atomic      Atomic             Coordinates (Angstroms)
 Number     Number       Type             X           Y           Z
 ---------------------------------------------------------------------
      1          6           0        0.026100    0.000000   -0.592017
      2          1           0        0.294334   -0.936767   -1.088681
      3          1           0        0.294334    0.936767   -1.088681
      4          8           0       -0.005167    0.000000    0.691067
 ---------------------------------------------------------------------
                    Distance matrix (angstroms):
                    1          2          3          4
     1  C    0.000000
     2  H    1.093690   0.000000
     3  H    1.093690   1.873534   0.000000
     4  O    1.283465   2.033406   2.033406   0.000000
 Stoichiometry    CH2O
 Framework group  CS[SG(CO),X(H2)]
 Deg. of freedom     4
 Full point group                 CS      NOp   2
 Largest Abelian subgroup         CS      NOp   2
 Largest concise Abelian subgroup CS      NOp   2
                         Standard orientation:                         
 ---------------------------------------------------------------------
 Center     Atomic      Atomic             Coordinates (Angstroms)
 Number     Number       Type             X           Y           Z
 ---------------------------------------------------------------------
      1          6           0        0.032007    0.578851   -0.000000
      2          1           0       -0.224047    1.081902    0.936767
      3          1           0       -0.224047    1.081902   -0.936767
      4          8           0        0.032007   -0.704614    0.000000
 ---------------------------------------------------------------------
 Rotational constants (GHZ):         270.7057905          35.3620822          31.6608789
 Standard basis: TZVP (5D, 7F)
 There are    36 symmetry adapted cartesian basis functions of A'  symmetry.
 There are    16 symmetry adapted cartesian basis functions of A"  symmetry.
 There are    34 symmetry adapted basis functions of A'  symmetry.
 There are    16 symmetry adapted basis functions of A"  symmetry.
    50 basis functions,    86 primitive gaussians,    52 cartesian basis functions
     8 alpha electrons        8 beta electrons
       nuclear repulsion energy        30.0430340850 Hartrees.
 NAtoms=    4 NActive=    4 NUniq=    3 SFac= 1.78D+00 NAtFMM=   60 NAOKFM=F Big=F
 Integral buffers will be    131072 words long.
 Raffenetti 1 integral format.
 Two-electron integral symmetry is turned on.
 One-electron integrals computed using PRISM.
 NBasis=    50 RedAO= T EigKep=  5.12D-03  NBF=    34    16
 NBsUse=    50 1.00D-06 EigRej= -1.00D+00 NBFU=    34    16
 Initial guess from the checkpoint file:  "manual_displacement_CAM-B3LYP.chk"
 B after Tr=    -0.000000    0.000000   -0.000000
         Rot=    0.999997    0.000000   -0.000000    0.002487 Ang=   0.28 deg.
 Initial guess orbital symmetries:
       Occupied  (A') (A') (A') (A') (A") (A') (A') (A")
       Virtual   (A') (A') (A') (A") (A') (A') (A") (A') (A') (A")
                 (A') (A') (A") (A') (A") (A') (A') (A") (A') (A')
                 (A") (A') (A") (A') (A") (A') (A') (A") (A') (A')
                 (A") (A') (A") (A') (A') (A") (A') (A') (A") (A')
                 (A') (A')
 Keep R1 ints in memory in symmetry-blocked form, NReq=2573813.
 Requested convergence on RMS density matrix=1.00D-08 within 128 cycles.
 Requested convergence on MAX density matrix=1.00D-06.
 Requested convergence on             energy=1.00D-06.
 No special actions if energy rises.
 SCF Done:  E(RCAM-B3LYP) =  -114.479163727     A.U. after    9 cycles
            NFock=  9  Conv=0.65D-08     -V/T= 2.0057
 DoSCS=F DFT=T ScalE2(SS,OS)=  1.000000  1.000000
 ExpMin= 9.52D-02 ExpMax= 2.70D+04 ExpMxC= 9.22D+02 IAcc=3 IRadAn=         5 AccDes= 0.00D+00
 HarFok:  IExCor=  205 AccDes= 0.00D+00 IRadAn=         5 IDoV=-2 UseB2=F ITyADJ=14
 ICtDFT= 12500011 ScaDFX=  1.000000  1.000000  1.000000  1.000000
 Range of M.O.s used for correlation:     3    50
 NBasis=    50 NAE=     8 NBE=     8 NFC=     2 NFV=     0
 NROrb=     48 NOA=     6 NOB=     6 NVA=    42 NVB=    42
 Keep R1, R2, and R3 ints in memory in symmetry-blocked form, NReq=2618668.
 Orbital symmetries:
       Occupied  (A') (A') (A') (A') (A") (A') (A') (A")
       Virtual   (A') (A') (A') (A") (A') (A') (A") (A') (A') (A")
                 (A') (A') (A") (A') (A") (A') (A') (A") (A') (A')
                 (A") (A') (A") (A') (A") (A') (A') (A") (A') (A')
                 (A") (A') (A") (A') (A') (A") (A') (A') (A") (A')
                 (A') (A')
 Generating guess from densities on rwf.
 Convergence on wavefunction:    0.000001000000000
 Iteration     1 Dimension     4 NMult     0 NNew      4
 CISAX will form     4 AO SS matrices at one time.
 Iteration     2 Dimension     8 NMult     4 NNew      4
 Iteration     3 Dimension    12 NMult     8 NNew      4
 Iteration     4 Dimension    16 NMult    12 NNew      4
 Iteration     5 Dimension    20 NMult    16 NNew      4
 Iteration     6 Dimension    24 NMult    20 NNew      4
 Iteration     7 Dimension    28 NMult    24 NNew      4
 Iteration     8 Dimension    30 NMult    28 NNew      2
 Iteration     9 Dimension    32 NMult    30 NNew      2
 ***********************************************************************
 Excited states from <AA,BB:AA,BB> singles matrix:
 ***********************************************************************
 
 Ground to excited state transition densities written to RWF  633
 Ground to excited state transition electric dipole moments (Au):
       state          X           Y           Z        Dip. S.      Osc.
         1        -0.0000      0.0000     -0.0852      0.0073      0.0006
         2        -0.0051      0.3047     -0.0000      0.0929      0.0177
 Ground to excited state transition velocity dipole moments (Au):
       state          X           Y           Z        Dip. S.      Osc.
         1         0.0000     -0.0000      0.0032      0.0000      0.0001
         2         0.0170     -0.0763      0.0000      0.0061      0.0143
 Ground to excited state transition magnetic dipole moments (Au):
       state          X           Y           Z
         1         0.0721     -1.1962     -0.0000
         2         0.0000      0.0000      1.4925
 Ground to excited state transition velocity quadrupole moments (Au):
       state          XX          YY          ZZ          XY          XZ          YZ
         1         0.0000      0.0000      0.0000     -0.0000     -0.0760      0.0027
         2        -0.0488     -0.0020      0.0116     -0.2822      0.0000      0.0000
 <0|del|b> * <b|rxdel|0> + <0|del|b> * <b|delr+rdel|0>
 Rotatory Strengths (R) in cgs (10**-40 erg-esu-cm/Gauss)
       state          XX          YY          ZZ    R(velocity)    E-M Angle
         1         0.0000      0.0000      0.0000      0.0000       90.00
         2         0.0000      0.0000     -0.0000      0.0000       90.00
 1/2[<0|r|b>*<b|rxdel|0> + (<0|rxdel|b>*<b|r|0>)*]
 Rotatory Strengths (R) in cgs (10**-40 erg-esu-cm/Gauss)
       state          XX          YY          ZZ     R(length)
         1         0.0000      0.0000     -0.0000      0.0000
         2         0.0000     -0.0000      0.0000     -0.0000
  1/2[<0|del|b>*<b|r|0> + (<0|r|b>*<b|del|0>)*] (Au)
       state          X           Y           Z        Dip. S.   Osc.(frdel)
         1        -0.0000     -0.0000     -0.0003      0.0003      0.0002
         2        -0.0001     -0.0233     -0.0000      0.0233      0.0156

 Excitation energies and oscillator strengths:
 
 Excited State   1:      Singlet-A"     3.2042 eV  386.94 nm  f=0.0006  <S**2>=0.000
       8 ->  9         0.70492
 This state for optimization and/or second-order correction.
 Total Energy, E(TD-HF/TD-DFT) =  -114.361410933    
 Copying the excited state density for this state as the 1-particle RhoCI density.
 
 Excited State   2:      Singlet-A'     7.7737 eV  159.49 nm  f=0.0177  <S**2>=0.000
       6 ->  9         0.61448
       7 ->  9        -0.34071
 SavETr:  write IOETrn=   770 NScale= 10 NData=  16 NLR=1 NState=    2 LETran=      46.
          IDoAtm=1111
          Differentiating once with respect to electric field.
                with respect to dipole field.
          Differentiating once with respect to nuclear coordinates.
 Keep R1 ints in memory in symmetry-blocked form, NReq=2576454.
          There are     1 degrees of freedom in the 1st order CPHF.  IDoFFX=0 NUNeed=     1.
 LinEq1:  Iter=  0 NonCon=     1 RMS=6.15D-02 Max=9.21D-01 NDo=     1
 AX will form     1 AO Fock derivatives at one time.
 LinEq1:  Iter=  1 NonCon=     1 RMS=1.34D-02 Max=9.06D-02 NDo=     1
 LinEq1:  Iter=  2 NonCon=     1 RMS=4.92D-03 Max=4.21D-02 NDo=     1
 LinEq1:  Iter=  3 NonCon=     1 RMS=1.62D-03 Max=9.97D-03 NDo=     1
 LinEq1:  Iter=  4 NonCon=     1 RMS=3.65D-04 Max=2.37D-03 NDo=     1
 LinEq1:  Iter=  5 NonCon=     1 RMS=6.76D-05 Max=6.10D-04 NDo=     1
 LinEq1:  Iter=  6 NonCon=     1 RMS=1.33D-05 Max=9.10D-05 NDo=     1
 LinEq1:  Iter=  7 NonCon=     1 RMS=3.05D-06 Max=3.48D-05 NDo=     1
 LinEq1:  Iter=  8 NonCon=     1 RMS=5.43D-07 Max=3.57D-06 NDo=     1
 LinEq1:  Iter=  9 NonCon=     1 RMS=8.63D-08 Max=3.96D-07 NDo=     1
 LinEq1:  Iter= 10 NonCon=     1 RMS=8.35D-09 Max=4.83D-08 NDo=     1
 LinEq1:  Iter= 11 NonCon=     1 RMS=1.25D-09 Max=6.62D-09 NDo=     1
 LinEq1:  Iter= 12 NonCon=     1 RMS=1.47D-10 Max=8.11D-10 NDo=     1
 LinEq1:  Iter= 13 NonCon=     0 RMS=1.28D-11 Max=6.66D-11 NDo=     1
 Linear equations converged to 1.000D-10 1.000D-09 after    13 iterations.
 End of Minotr F.D. properties file   721 does not exist.
 End of Minotr F.D. properties file   722 does not exist.
 End of Minotr F.D. properties file   788 does not exist.
 Calling FoFJK, ICntrl=  10005127 FMM=F ISym2X=1 I1Cent= 0 IOpClX= 0 NMat=1 NMatS=1 NMatT=0.
 ***** Axes restored to original set *****
 -------------------------------------------------------------------
 Center     Atomic                   Forces (Hartrees/Bohr)
 Number     Number              X              Y              Z
 -------------------------------------------------------------------
      1        6          -0.000068838   -0.000000000   -0.000599352
      2        1           0.000010655   -0.000024279    0.000115172
      3        1           0.000010655    0.000024279    0.000115172
      4        8           0.000047529    0.000000000    0.000369009
 -------------------------------------------------------------------
 Cartesian Forces:  Max     0.000599352 RMS     0.000210223

 GradGradGradGradGradGradGradGradGradGradGradGradGradGradGradGradGradGrad
 Berny optimization.
 Using GEDIIS/GDIIS optimizer.
 FormGI is forming the generalized inverse of G from B-inverse, IUseBI=4.
 Internal  Forces:  Max     0.000367733 RMS     0.000164296
 Search for a local minimum.
 Step number   5 out of a maximum of   20
 All quantities printed in internal units (Hartrees-Bohrs-Radians)
 Mixed Optimization -- En-DIIS/RFO-DIIS
 Update second derivatives using D2CorX and points    1    2    3    4    5
 DE= -2.34D-05 DEPred=-1.86D-05 R= 1.25D+00
 TightC=F SS=  1.41D+00  RLast= 4.64D-02 DXNew= 8.4853D-01 1.3921D-01
 Trust test= 1.25D+00 RLast= 4.64D-02 DXMaxT set to 5.05D-01
 The second derivative matrix:
                          R1        R2        R3        A1        A2
           R1           0.28233
           R2           0.00910   0.28233
           R3           0.01427   0.01427   0.67836
           A1           0.01708   0.01708  -0.03653   0.10648
           A2           0.00565   0.00565   0.00024  -0.01750   0.15180
           A3           0.00565   0.00565   0.00024  -0.01750  -0.00820
           D1           0.00704   0.00704  -0.01380  -0.03011   0.00115
                          A3        D1
           A3           0.15180
           D1           0.00115   0.02682
 ITU=  1  1  1  1  0
 Use linear search instead of GDIIS.
[...]
 Alpha  occ. eigenvalues --  -19.22612 -10.35857  -1.11241  -0.72848  -0.57155
 Alpha  occ. eigenvalues --   -0.51564  -0.45150  -0.34562
 Alpha virt. eigenvalues --   -0.03350   0.09550   0.14588   0.14806   0.24539
 Alpha virt. eigenvalues --    0.25016   0.29129   0.45031   0.48038   0.49468
 Alpha virt. eigenvalues --    0.51976   0.55938   0.61583   0.77599   1.24121
 Alpha virt. eigenvalues --    1.29456   1.32591   1.32595   1.37481   1.50689
 Alpha virt. eigenvalues --    1.68045   1.78634   1.80302   1.92828   2.15943
 Alpha virt. eigenvalues --    2.18701   2.26725   2.51195   2.53528   2.66555
 Alpha virt. eigenvalues --    2.71152   2.71585   2.72939   2.76117   2.99037
 Alpha virt. eigenvalues --    3.14070   3.16778   3.22794   3.40510   4.10429
 Alpha virt. eigenvalues --   21.82292  43.31336
          Condensed to atoms (all electrons):
               1          2          3          4
     1  C    4.696025   0.372354   0.372354   0.487225
     2  H    0.372354   0.677141  -0.096012  -0.064267
     3  H    0.372354  -0.096012   0.677141  -0.064267
     4  O    0.487225  -0.064267  -0.064267   7.934922
 Mulliken charges:
               1
     1  C    0.072042
     2  H    0.110785
     3  H    0.110785
     4  O   -0.293612
 Sum of Mulliken charges =  -0.00000
 Mulliken charges with hydrogens summed into heavy atoms:
               1
     1  C    0.293612
     4  O   -0.293612
 APT charges:
               1
     1  C   -0.075893
     2  H    0.149832
     3  H    0.149832
     4  O   -0.223771
 Sum of APT charges =  -0.00000
 APT charges with hydrogens summed into heavy atoms:
               1
     1  C    0.223771
     4  O   -0.223771
 Electronic spatial extent (au):  <R**2>=             62.9944
 Charge=             -0.0000 electrons
 Dipole moment (field-independent basis, Debye):
    X=             -0.2700    Y=              2.7482    Z=             -0.0000  Tot=              2.7614
 Quadrupole moment (field-independent basis, Debye-Ang):
   XX=            -11.8258   YY=            -12.3615   ZZ=            -11.5829
   XY=             -0.1266   XZ=              0.0000   YZ=             -0.0000
 Traceless Quadrupole moment (field-independent basis, Debye-Ang):
   XX=              0.0976   YY=             -0.4381   ZZ=              0.3405
   XY=             -0.1266   XZ=              0.0000   YZ=             -0.0000
 Octapole moment (field-independent basis, Debye-Ang**2):
  XXX=             -0.0829  YYY=             -0.1992  ZZZ=             -0.0000  XYY=             -0.4529
  XXY=             -0.5384  XXZ=             -0.0000  XZZ=             -0.4699  YZZ=              0.8235
  YYZ=             -0.0000  XYZ=              0.0000
 Hexadecapole moment (field-independent basis, Debye-Ang**3):
 XXXX=            -11.5124 YYYY=            -48.6909 ZZZZ=            -18.2094 XXXY=              1.2449
 XXXZ=             -0.0000 YYYX=              0.9041 YYYZ=             -0.0000 ZZZX=              0.0000
 ZZZY=             -0.0000 XXYY=             -9.8515 XXZZ=             -5.1597 YYZZ=            -10.7264
 XXYZ=              0.0000 YYXZ=              0.0000 ZZXY=             -0.0259
 N-N= 3.004303408500D+01 E-N=-3.289425545715D+02  KE= 1.138346296711D+02
 Symmetry A'   KE= 1.069860698269D+02
 Symmetry A"   KE= 6.848559844140D+00
  Exact polarizability:      12.801      -0.468      20.359      -0.000       0.000      13.865
 Approx polarizability:      10.888       0.078      28.400      -0.000      -0.000      13.916
 Density matrix is not symmetric, so symmetry will not be used here.
 Calling FoFJK, ICntrl=  10105127 FMM=F ISym2X=1 I1Cent= 0 IOpClX= 0 NMat=1 NMatS=1 NMatT=0.
 Density matrix is not symmetric, so symmetry will not be used here.
 Calling FoFJK, ICntrl=  10002127 FMM=F ISym2X=0 I1Cent= 0 IOpClX= 0 NMat=1 NMatS=1 NMatT=0.
 Full mass-weighted force constant matrix:
 Low frequencies ---  -25.5680  -19.2001  -15.0338   -0.0008   -0.0004    0.0013
 Low frequencies ---  505.2562  900.1190 1313.1547
 Diagonal vibrational polarizability:
        9.8844706       1.1295012       0.0800129
 Harmonic frequencies (cm**-1), IR intensities (KM/Mole), Raman scattering
 activities (A**4/AMU), depolarization ratios for plane and unpolarized
 incident light, reduced masses (AMU), force constants (mDyne/A),
 and normal coordinates:
                      1                      2                      3
                     A'                     A"                     A'
 Frequencies --    505.2535               900.1189              1313.1547
 Red. masses --      1.3235                 1.2858                 1.0781
 Frc consts  --      0.1991                 0.6138                 1.0953
 IR Inten    --     97.0710                 2.1519                45.8381
  Atom  AN      X      Y      Z        X      Y      Z        X      Y      Z
     1   6    -0.16   0.00  -0.00    -0.00   0.00   0.14     0.00  -0.01  -0.00
     2   1     0.67   0.15   0.11     0.06   0.66  -0.23    -0.10   0.61  -0.34
     3   1     0.67   0.15  -0.11    -0.06  -0.66  -0.23    -0.10   0.61   0.34
     4   8     0.04  -0.02   0.00     0.00  -0.00  -0.07     0.01  -0.07   0.00
                      4                      5                      6
                     A'                     A'                     A"
 Frequencies --   1427.3992              3022.5987              3118.3328
 Red. masses --      9.4284                 1.0408                 1.1099
 Frc consts  --     11.3182                 5.6024                 6.3591
 IR Inten    --      1.2443                16.6834                 3.0854
  Atom  AN      X      Y      Z        X      Y      Z        X      Y      Z
     1   6     0.03   0.67  -0.00     0.02  -0.05  -0.00    -0.00   0.00  -0.10
     2   1    -0.10  -0.15   0.36    -0.14   0.32   0.62    -0.16   0.34   0.59
     3   1    -0.10  -0.15  -0.36    -0.14   0.32  -0.62     0.16  -0.34   0.59
     4   8    -0.01  -0.48   0.00     0.00  -0.00   0.00     0.00  -0.00  -0.00

 -------------------
 - Thermochemistry -
 -------------------
 Temperature   298.150 Kelvin.  Pressure   1.00000 Atm.
 Atom     1 has atomic number  6 and mass  12.00000
 Atom     2 has atomic number  1 and mass   1.00783
 Atom     3 has atomic number  1 and mass   1.00783
 Atom     4 has atomic number  8 and mass  15.99491
 Molecular mass:    30.01056 amu.
 Principal axes and moments of inertia in atomic units:
                           1         2         3
     Eigenvalues --     6.66680  51.03606  57.00225
           X           -0.04227   0.00000   0.99911
           Y            0.99911   0.00000   0.04227
           Z           -0.00000   1.00000  -0.00000
 This molecule is an asymmetric top.
 Rotational symmetry number  1.
 Rotational temperatures (Kelvin)     12.99183     1.69711     1.51948
 Rotational constants (GHZ):         270.70579    35.36208    31.66088
 Zero-point vibrational energy      61529.1 (Joules/Mol)
                                   14.70580 (Kcal/Mol)
 Warning -- explicit consideration of   1 degrees of freedom as
           vibrations may cause significant error
 Vibrational temperatures:    726.95  1295.07  1889.34  2053.71  4348.85
          (Kelvin)           4486.59
 
 Zero-point correction=                           0.023435 (Hartree/Particle)
 Thermal correction to Energy=                    0.026559
 Thermal correction to Enthalpy=                  0.027503
 Thermal correction to Gibbs Free Energy=         0.001576
 Sum of electronic and zero-point Energies=           -114.337976
 Sum of electronic and thermal Energies=              -114.334852
 Sum of electronic and thermal Enthalpies=            -114.333908
 Sum of electronic and thermal Free Energies=         -114.359835
 
                     E (Thermal)             CV                S
                      KCal/Mol        Cal/Mol-Kelvin    Cal/Mol-Kelvin
 Total                   16.666              7.938             54.569
 Electronic               0.000              0.000              0.000
 Translational            0.889              2.981             36.130
 Rotational               0.889              2.981             17.612
 Vibrational             14.889              1.977              0.827
 Vibration     1          0.861              1.238              0.645
                       Q            Log10(Q)             Ln(Q)
 Total Bot       0.188451D+00         -0.724803         -1.668920
 Total V=0       0.113403D+11         10.054625         23.151630
 Vib (Bot)       0.184988D-10        -10.732857        -24.713316
 Vib (Bot)    1  0.323768D+00         -0.489766         -1.127728
 Vib (V=0)       0.111320D+01          0.046571          0.107234
 Vib (V=0)    1  0.109567D+01          0.039681          0.091368
 Electronic      0.100000D+01          0.000000          0.000000
 Translational   0.646197D+07          6.810365         15.681445
 Rotational      0.157648D+04          3.197689          7.362951
 ***** Axes restored to original set *****
 -------------------------------------------------------------------
 Center     Atomic                   Forces (Hartrees/Bohr)
 Number     Number              X              Y              Z
 -------------------------------------------------------------------
      1        6          -0.000068839    0.000000000   -0.000599345
      2        1           0.000010655   -0.000024280    0.000115170
      3        1           0.000010655    0.000024280    0.000115170
      4        8           0.000047529   -0.000000000    0.000369004
 -------------------------------------------------------------------
 Cartesian Forces:  Max     0.000599345 RMS     0.000210220
 -------------------------------------------------------------------
 Center     Atomic                Nonadiabatic Coup. (Bohr^-1)
 Number     Number              X              Y              Z
 -------------------------------------------------------------------
      1        6           0.000000000    0.106909379    0.000000000
      2        1          -0.323914209   -0.047055288   -0.045982453
      3        1           0.323914209   -0.047055288    0.045982453
      4        8           0.000000000   -0.009574445   -0.000000000
 -------------------------------------------------------------------
 Cartesian Nonad. Coup.:  Max     0.323914209 RMS     0.138449536
 FormGI is forming the generalized inverse of G from B-inverse, IUseBI=4.

 GradGradGradGradGradGradGradGradGradGradGradGradGradGradGradGradGradGrad
 Berny optimization.
 Internal  Forces:  Max     0.000367728 RMS     0.000164295
 Search for a local minimum.
 Step number   1 out of a maximum of    2
 All quantities printed in internal units (Hartrees-Bohrs-Radians)
 Second derivative matrix not updated -- analytic derivatives used.
 The second derivative matrix:
                          R1        R2        R3        A1        A2
           R1           0.33530
           R2           0.00166   0.33530
           R3           0.02586   0.02586   0.55807
           A1           0.00527   0.00527  -0.03679   0.05795
           A2           0.01369  -0.01472   0.02073  -0.03529   0.07285
           A3          -0.01472   0.01369   0.02073  -0.03529  -0.02817
           D1           0.00967   0.00967  -0.00253  -0.00599   0.00689
                          A3        D1
           A3           0.07285
           D1           0.00689   0.01291
 ITU=  0
     Eigenvalues ---    0.01167   0.09760   0.09805   0.33246   0.33705
     Eigenvalues ---    0.56838
 Angle between quadratic step and forces=  57.85 degrees.
 Linear search not attempted -- first point.
 Iteration  1 RMS(Cart)=  0.00118565 RMS(Int)=  0.00000370
 Iteration  2 RMS(Cart)=  0.00000231 RMS(Int)=  0.00000263
 Iteration  3 RMS(Cart)=  0.00000000 RMS(Int)=  0.00000263
 Variable       Old X    -DE/DX   Delta X   Delta X   Delta X     New X
                                 (Linear)    (Quad)   (Total)
    R1        2.06677  -0.00003   0.00000  -0.00005  -0.00005   2.06672
    R2        2.06677  -0.00003   0.00000  -0.00005  -0.00005   2.06672
    R3        2.42540   0.00037   0.00000   0.00081   0.00081   2.42621
    A1        2.05698   0.00015   0.00000   0.00084   0.00084   2.05781
    A2        2.04874  -0.00011   0.00000  -0.00153  -0.00153   2.04721
    A3        2.04874  -0.00011   0.00000  -0.00153  -0.00153   2.04721
    D1        2.60795  -0.00008   0.00000  -0.00393  -0.00393   2.60402
         Item               Value     Threshold  Converged?
 Maximum Force            0.000368     0.000450     YES
 RMS     Force            0.000164     0.000300     YES
 Maximum Displacement     0.002053     0.001800     NO 
 RMS     Displacement     0.001187     0.001200     YES
 Predicted change in Energy=-5.361586D-07
                           ----------------------------
                           ! Non-Optimized Parameters !
                           ! (Angstroms and Degrees)  !
 --------------------------                            --------------------------
 ! Name  Definition              Value          Derivative Info.                !
 --------------------------------------------------------------------------------
 ! R1    R(1,2)                  1.0937         -DE/DX =    0.0                 !
 ! R2    R(1,3)                  1.0937         -DE/DX =    0.0                 !
 ! R3    R(1,4)                  1.2839         -DE/DX =    0.0004              !
 ! A1    A(2,1,3)              117.9041         -DE/DX =    0.0001              !
 ! A2    A(2,1,4)              117.2967         -DE/DX =   -0.0001              !
 ! A3    A(3,1,4)              117.2967         -DE/DX =   -0.0001              !
 ! D1    D(2,1,4,3)            149.1994         -DE/DX =   -0.0001              !
 --------------------------------------------------------------------------------
 GradGradGradGradGradGradGradGradGradGradGradGradGradGradGradGradGradGrad

 -------------------------------------------------------------------
 Center     Atomic                Nonadiabatic Coup. (Bohr^-1)
 Number     Number              X              Y              Z
 -------------------------------------------------------------------
      1        6           0.000000000    0.106909379    0.000000000
      2        1          -0.323914209   -0.047055288   -0.045982453
      3        1           0.323914209   -0.047055288    0.045982453
      4        8           0.000000000   -0.009574445   -0.000000000
 -------------------------------------------------------------------
 Cartesian Nonad. Coup.:  Max     0.323914209 RMS     0.138449536

 ----------------------------------------------------------------------

 Electric dipole moment (input orientation):
 (Debye = 10**-18 statcoulomb cm , SI units = C m)
                  (au)            (Debye)         (10**-30 SI)
   Tot        0.677306D+00      0.172154D+01      0.574244D+01
   x          0.263525D+00      0.669813D+00      0.223426D+01
   y          0.000000D+00      0.000000D+00      0.000000D+00
   z         -0.623937D+00     -0.158589D+01     -0.528996D+01

 Dipole polarizability, Alpha (input orientation).
 (esu units = cm**3 , SI units = C**2 m**2 J**-1)
 Alpha(0;0):
               (au)            (10**-24 esu)      (10**-40 SI)
   iso        0.156752D+02      0.232282D+01      0.258449D+01
   aniso      0.713188D+01      0.105684D+01      0.117589D+01
   xx         0.128287D+02      0.190101D+01      0.211516D+01
   yx         0.000000D+00      0.000000D+00      0.000000D+00
   yy         0.138653D+02      0.205463D+01      0.228609D+01
   zx        -0.651625D+00     -0.965609D-01     -0.107438D+00
   zy         0.000000D+00      0.000000D+00      0.000000D+00
   zz         0.203315D+02      0.301282D+01      0.335222D+01

 ----------------------------------------------------------------------

 Dipole orientation:
     6         -0.38984560         -0.00000000          1.04978874
     1         -0.28807074          1.77023327          2.11161251
     1         -0.28807074         -1.77023327          2.11161251
     8          0.49911219          0.00000000         -1.20682605

 Electric dipole moment (dipole orientation):
 (Debye = 10**-18 statcoulomb cm , SI units = C m)
                  (au)            (Debye)         (10**-30 SI)
   Tot        0.677306D+00      0.172154D+01      0.574244D+01
   x          0.000000D+00      0.000000D+00      0.000000D+00
   y          0.000000D+00      0.000000D+00      0.000000D+00
   z          0.677306D+00      0.172154D+01      0.574244D+01

 Dipole polarizability, Alpha (dipole orientation).
 (esu units = cm**3 , SI units = C**2 m**2 J**-1)
 Alpha(0;0):
               (au)            (10**-24 esu)      (10**-40 SI)
   iso        0.156752D+02      0.232282D+01      0.258449D+01
   aniso      0.713188D+01      0.105684D+01      0.117589D+01
   xx         0.134974D+02      0.200010D+01      0.222541D+01
   yx         0.000000D+00      0.000000D+00      0.000000D+00
   yy         0.138653D+02      0.205463D+01      0.228609D+01
   zx        -0.223485D+01     -0.331170D+00     -0.368477D+00
   zy         0.000000D+00      0.000000D+00      0.000000D+00
   zz         0.196629D+02      0.291374D+01      0.324197D+01

 ----------------------------------------------------------------------
 Unable to Open any file for archive entry.
 1\1\GINC-CX3-7-2\Freq\RCAM-B3LYP TD-FC\TZVP\C1H2O1\RK820\26-Feb-2024\0
 \\#N Geom=AllCheck Guess=TCheck SCRF=Check GenChk RCAM-B3LYP TD(FC,Rea
 d)/TZVP Freq\\Manually displaced optimization and frequency calculatio
 n of formaldehyde\\0,1\C,0.0261001476,0.,-0.5920174171\H,0.2943336322,
 -0.9367671024,-1.0886813378\H,0.2943336322,0.9367671024,-1.0886813378\
 O,-0.005167412,0.,0.6910670928\\Version=ES64L-G16RevC.01\State=1-A'\HF
 =-114.4791637\RMSD=5.137e-10\RMSF=2.102e-04\ZeroPoint=0.0234352\Therma
 l=0.0265592\ETot=-114.3348517\HTot=-114.3339075\GTot=-114.3598352\Dipo
 le=0.2635248,0.,-0.6239372\DipoleDeriv=-0.3491724,0.,0.0035489,0.,0.13
 70552,0.,0.0229034,0.,-0.0155621,0.216456,0.0532936,0.0087422,0.031830
 9,0.058967,0.0185839,0.0116748,0.0296591,0.1740727,0.216456,-0.0532937
 ,0.0087422,-0.0318309,0.058967,-0.0185839,0.0116748,-0.0296591,0.17407
 27,-0.0837396,0.,-0.0210333,0.,-0.2549893,0.,-0.0462531,0.,-0.3325833\
 Polar=12.8286716,0.,13.8653377,-0.6516251,0.,20.3315487\PG=CS [SG(C1O1
 ),X(H2)]\NImag=0\\0.05330487,0.,0.50557593,-0.04469532,0.,0.64614937,-
 0.02359356,0.06766067,0.02359273,0.02128215,0.05549306,-0.23795061,-0.
 09563068,-0.06213578,0.25579027,0.02782223,-0.10566615,-0.07811979,-0.
 03748152,0.11593951,0.10529722,-0.02359356,-0.06766067,0.02359273,0.00
 166201,0.00634556,-0.00004732,0.02128215,-0.05549306,-0.23795061,0.095
 63068,-0.00634556,-0.01678144,0.01216737,0.06213578,0.25579027,0.02782
 223,0.10566615,-0.07811979,-0.00004733,-0.01216737,0.00665276,-0.03748
 152,-0.11593951,0.10529722,-0.00611775,0.,-0.00249014,0.00064940,0.000
 29716,0.00970661,0.00064940,-0.00029716,0.00970662,0.00481894,0.,-0.02
 967470,0.,0.00082067,-0.00105822,-0.02244073,-0.00082067,-0.00105822,0
 .02244073,0.,0.03179114,-0.01094914,0.,-0.48990979,0.01393612,-0.00814
 146,-0.03383018,0.01393611,0.00814146,-0.03383018,-0.01692309,0.,0.557
 57015\\0.00006884,0.,0.00059935,-0.00001066,0.00002428,-0.00011517,-0.
 00001066,-0.00002428,-0.00011517,-0.00004753,0.,-0.00036900\\\@
 The archive entry for this job was punched.


 MATERIAL COPIED FROM ONE SCHOLARLY BOOK WITHOUT CREDIT COMPRISES PLAGIARISM.
 MATERIAL COPIED FROM TWO SCHOLARLY BOOKS COMPRISES AN ESSAY.
 MATERIAL COPIED FROM THREE SCHOLARLY BOOKS COMPRISES A DISSERTATION.
 MATERIAL COPIED FROM FOUR SCHOLARLY BOOKS COMPRISES A FIFTH SCHOLARLY BOOK.

                               -- C&EN, 25 FEB 1980
 Job cpu time:       0 days  0 hours  0 minutes 26.3 seconds.
 Elapsed time:       0 days  0 hours  0 minutes 42.2 seconds.
 File lengths (MBytes):  RWF=     41 Int=      0 D2E=      0 Chk=      2 Scr=      1
 Normal termination of Gaussian 16 at Mon Feb 26 14:53:25 2024.
