 Entering Gaussian System, Link 0=g16
 Input=manual_displacement_CAM-B3LYP.gjf
 Output=manual_displacement_CAM-B3LYP.log
 Initial command:
 /apps/gaussian/g16-c01-avx2/g16/l1.exe "/var/tmp/pbs.8977129.pbs/Gau-2234000.inp" -scrdir="/var/tmp/pbs.8977129.pbs/"
 Entering Link 1 = /apps/gaussian/g16-c01-avx2/g16/l1.exe PID=   2234001.
  
 Copyright (c) 1988-2019, Gaussian, Inc.  All Rights Reserved.
  
 This is part of the Gaussian(R) 16 program.  It is based on
 the Gaussian(R) 09 system (copyright 2009, Gaussian, Inc.),
 the Gaussian(R) 03 system (copyright 2003, Gaussian, Inc.),
 the Gaussian(R) 98 system (copyright 1998, Gaussian, Inc.),
 the Gaussian(R) 94 system (copyright 1995, Gaussian, Inc.),
 the Gaussian 92(TM) system (copyright 1992, Gaussian, Inc.),
 the Gaussian 90(TM) system (copyright 1990, Gaussian, Inc.),
 the Gaussian 88(TM) system (copyright 1988, Gaussian, Inc.),
 the Gaussian 86(TM) system (copyright 1986, Carnegie Mellon
 University), and the Gaussian 82(TM) system (copyright 1983,
 Carnegie Mellon University). Gaussian is a federally registered
 trademark of Gaussian, Inc.
  
 This software contains proprietary and confidential information,
 including trade secrets, belonging to Gaussian, Inc.
  
 This software is provided under written license and may be
 used, copied, transmitted, or stored only in accord with that
 written license.
  
 The following legend is applicable only to US Government
 contracts under FAR:
  
                    RESTRICTED RIGHTS LEGEND
  
 Use, reproduction and disclosure by the US Government is
 subject to restrictions as set forth in subparagraphs (a)
 and (c) of the Commercial Computer Software - Restricted
 Rights clause in FAR 52.227-19.
  
 Gaussian, Inc.
 340 Quinnipiac St., Bldg. 40, Wallingford CT 06492
  
  
 ---------------------------------------------------------------
 Warning -- This program may not be used in any manner that
 competes with the business of Gaussian, Inc. or will provide
 assistance to any competitor of Gaussian, Inc.  The licensee
 of this program is prohibited from giving any competitor of
 Gaussian, Inc. access to this program.  By using this program,
 the user acknowledges that Gaussian, Inc. is engaged in the
 business of creating and licensing software in the field of
 computational chemistry and represents and warrants to the
 licensee that it is not a competitor of Gaussian, Inc. and that
 it will not use this program in any manner prohibited above.
 ---------------------------------------------------------------
  

 Cite this work as:
 Gaussian 16, Revision C.01,
 M. J. Frisch, G. W. Trucks, H. B. Schlegel, G. E. Scuseria, 
 M. A. Robb, J. R. Cheeseman, G. Scalmani, V. Barone, 
 G. A. Petersson, H. Nakatsuji, X. Li, M. Caricato, A. V. Marenich, 
 J. Bloino, B. G. Janesko, R. Gomperts, B. Mennucci, H. P. Hratchian, 
 J. V. Ortiz, A. F. Izmaylov, J. L. Sonnenberg, D. Williams-Young, 
 F. Ding, F. Lipparini, F. Egidi, J. Goings, B. Peng, A. Petrone, 
 T. Henderson, D. Ranasinghe, V. G. Zakrzewski, J. Gao, N. Rega, 
 G. Zheng, W. Liang, M. Hada, M. Ehara, K. Toyota, R. Fukuda, 
 J. Hasegawa, M. Ishida, T. Nakajima, Y. Honda, O. Kitao, H. Nakai, 
 T. Vreven, K. Throssell, J. A. Montgomery, Jr., J. E. Peralta, 
 F. Ogliaro, M. J. Bearpark, J. J. Heyd, E. N. Brothers, K. N. Kudin, 
 V. N. Staroverov, T. A. Keith, R. Kobayashi, J. Normand, 
 K. Raghavachari, A. P. Rendell, J. C. Burant, S. S. Iyengar, 
 J. Tomasi, M. Cossi, J. M. Millam, M. Klene, C. Adamo, R. Cammi, 
 J. W. Ochterski, R. L. Martin, K. Morokuma, O. Farkas, 
 J. B. Foresman, and D. J. Fox, Gaussian, Inc., Wallingford CT, 2019.
 
 ******************************************
 Gaussian 16:  ES64L-G16RevC.01  3-Jul-2019
                23-Feb-2024 
 ******************************************
 %chk=manual_displacement_CAM-B3LYP.chk
 %NProcShared=32
 Will use up to   32 processors via shared memory.
 %Mem=110GB
 ---------------------------------------
 # TD(Root=1) geom=connectivity opt freq
 ---------------------------------------
 1/18=20,19=15,38=1,57=2/1,3;
 2/9=110,12=2,17=6,18=5,40=1/2;
 3/11=9,25=1,30=1,71=1/1,2,3,8;
 4//1;
 5/5=2,38=5/2;
 8/6=1,10=1,107=1/1;
 9/8=1,15=2,42=1,70=2/14;
 10/5=4,28=1/2;
 6/7=2,8=2,9=2,10=2/1;
 7/12=6,13=5,14=1/1,2,3,16;
 1/18=20,19=15/3(2);
 2/9=110/2;
 99//99;
 2/9=110/2;
 3/11=9,25=1,30=1,71=1/1,2,3,8;
 4/5=5,16=3,69=1/1;
 5/5=2,38=5/2;
 8/6=1,10=1,107=1/1;
 9/8=1,15=2,42=1,49=4,70=2/14;
 10/5=4,28=1/2;
 7/12=6,13=5,14=1/1,2,3,16;
 1/18=20,19=15/3(-8);
 2/9=110/2;
 6/7=2,8=2,9=2,10=2/1;
 99/9=10/99;
 ----------------------------------------------------------------------
 Re-optimization and frequency calculation for first excited state comp
 uted by TD/CAM-B3LYP
 ----------------------------------------------------------------------
 Symbolic Z-matrix:
 Charge =  0 Multiplicity = 1
 C                     0.0656    0.       -0.61338 
 H                    -0.287    -0.9572   -1.14173 
 H                    -0.287     0.9572   -1.14173 
 O                    -0.0123    0.        0.74547 
 

 GradGradGradGradGradGradGradGradGradGradGradGradGradGradGradGradGradGrad
 Berny optimization.
 Initialization pass.
                           ----------------------------
                           !    Initial Parameters    !
                           ! (Angstroms and Degrees)  !
 --------------------------                            --------------------------
 ! Name  Definition              Value          Derivative Info.                !
 --------------------------------------------------------------------------------
 ! R1    R(1,2)                  1.1488         estimate D2E/DX2                !
 ! R2    R(1,3)                  1.1488         estimate D2E/DX2                !
 ! R3    R(1,4)                  1.3611         estimate D2E/DX2                !
 ! A1    A(2,1,3)              112.8635         estimate D2E/DX2                !
 ! A2    A(2,1,4)              116.2058         estimate D2E/DX2                !
 ! A3    A(3,1,4)              116.2058         estimate D2E/DX2                !
 ! D1    D(2,1,4,3)           -136.4611         estimate D2E/DX2                !
 --------------------------------------------------------------------------------
 Trust Radius=3.00D-01 FncErr=1.00D-07 GrdErr=1.00D-07 EigMax=2.50D+02 EigMin=1.00D-04
 Number of steps in this run=     20 maximum allowed number of steps=    100.
 GradGradGradGradGradGradGradGradGradGradGradGradGradGradGradGradGradGrad

                          Input orientation:                          
 ---------------------------------------------------------------------
 Center     Atomic      Atomic             Coordinates (Angstroms)
 Number     Number       Type             X           Y           Z
 ---------------------------------------------------------------------
      1          6           0        0.065600    0.000000   -0.613380
      2          1           0       -0.287000   -0.957202   -1.141728
      3          1           0       -0.287000    0.957202   -1.141728
      4          8           0       -0.012300    0.000000    0.745467
 ---------------------------------------------------------------------
                    Distance matrix (angstroms):
                    1          2          3          4
     1  C    0.000000
     2  H    1.148788   0.000000
     3  H    1.148788   1.914404   0.000000
     4  O    1.361078   2.133823   2.133823   0.000000
 Stoichiometry    CH2O
 Framework group  CS[SG(CO),X(H2)]
 Deg. of freedom     4
 Full point group                 CS      NOp   2
 Largest Abelian subgroup         CS      NOp   2
 Largest concise Abelian subgroup CS      NOp   2
                         Standard orientation:                         
 ---------------------------------------------------------------------
 Center     Atomic      Atomic             Coordinates (Angstroms)
 Number     Number       Type             X           Y           Z
 ---------------------------------------------------------------------
      1          6           0       -0.047783    0.617126   -0.000000
      2          1           0        0.334479    1.124428    0.957202
      3          1           0        0.334479    1.124428   -0.957202
      4          8           0       -0.047783   -0.743952    0.000000
 ---------------------------------------------------------------------
 Rotational constants (GHZ):         244.5182899          31.4278007          28.5405198
 Standard basis: STO-3G (5D, 7F)
 There are     9 symmetry adapted cartesian basis functions of A'  symmetry.
 There are     3 symmetry adapted cartesian basis functions of A"  symmetry.
 There are     9 symmetry adapted basis functions of A'  symmetry.
 There are     3 symmetry adapted basis functions of A"  symmetry.
    12 basis functions,    36 primitive gaussians,    12 cartesian basis functions
     8 alpha electrons        8 beta electrons
       nuclear repulsion energy        28.4340605547 Hartrees.
 NAtoms=    4 NActive=    4 NUniq=    3 SFac= 1.78D+00 NAtFMM=   60 NAOKFM=F Big=F
 Integral buffers will be    131072 words long.
 Raffenetti 1 integral format.
 Two-electron integral symmetry is turned on.
 One-electron integrals computed using PRISM.
 NBasis=    12 RedAO= T EigKep=  2.89D-01  NBF=     9     3
 NBsUse=    12 1.00D-06 EigRej= -1.00D+00 NBFU=     9     3
 ExpMin= 1.69D-01 ExpMax= 1.31D+02 ExpMxC= 1.31D+02 IAcc=3 IRadAn=         5 AccDes= 0.00D+00
 Harris functional with IExCor=  205 and IRadAn=       5 diagonalized for initial guess.
 HarFok:  IExCor=  205 AccDes= 0.00D+00 IRadAn=         5 IDoV= 1 UseB2=F ITyADJ=14
 ICtDFT=  3500011 ScaDFX=  1.000000  1.000000  1.000000  1.000000
 FoFCou: FMM=F IPFlag=           0 FMFlag=      100000 FMFlg1=           0
         NFxFlg=           0 DoJE=T BraDBF=F KetDBF=T FulRan=T
         wScrn=  0.000000 ICntrl=       500 IOpCl=  0 I1Cent=   200000004 NGrid=           0
         NMat0=    1 NMatS0=      1 NMatT0=    0 NMatD0=    1 NMtDS0=    0 NMtDT0=    0
 Petite list used in FoFCou.
 Initial guess orbital symmetries:
       Occupied  (A') (A') (A') (A') (A") (A') (A') (A")
       Virtual   (A') (A') (A') (A")
 The electronic state of the initial guess is 1-A'.
 Keep R1 ints in memory in symmetry-blocked form, NReq=6414784.
 Requested convergence on RMS density matrix=1.00D-08 within 128 cycles.
 Requested convergence on MAX density matrix=1.00D-06.
 Requested convergence on             energy=1.00D-06.
 No special actions if energy rises.
 SCF Done:  E(RHF) =  -112.300745374     A.U. after   11 cycles
            NFock= 11  Conv=0.96D-08     -V/T= 2.0097
 ExpMin= 1.69D-01 ExpMax= 1.31D+02 ExpMxC= 1.31D+02 IAcc=3 IRadAn=         5 AccDes= 0.00D+00
 HarFok:  IExCor=  205 AccDes= 0.00D+00 IRadAn=         5 IDoV=-2 UseB2=F ITyADJ=14
 ICtDFT= 12500011 ScaDFX=  1.000000  1.000000  1.000000  1.000000
 Range of M.O.s used for correlation:     3    12
 NBasis=    12 NAE=     8 NBE=     8 NFC=     2 NFV=     0
 NROrb=     10 NOA=     6 NOB=     6 NVA=     4 NVB=     4
 Keep R1, R2, and R3 ints in memory in symmetry-blocked form, NReq=6417155.
 Orbital symmetries:
       Occupied  (A') (A') (A') (A') (A") (A') (A') (A")
       Virtual   (A') (A') (A") (A')
    12 initial guesses have been made.
 Convergence on wavefunction:    0.000001000000000
 Iteration     1 Dimension    12 NMult     0 NNew     12
 CISAX will form    12 AO SS matrices at one time.
 New state      2 was old state      3
 New state      3 was old state      2
 Iteration     2 Dimension    18 NMult    12 NNew      6
 Iteration     3 Dimension    23 NMult    18 NNew      5
 Iteration     4 Dimension    24 NMult    23 NNew      1
 ***********************************************************************
 Excited states from <AA,BB:AA,BB> singles matrix:
 ***********************************************************************
 
 Ground to excited state transition densities written to RWF  633
 Ground to excited state transition electric dipole moments (Au):
       state          X           Y           Z        Dip. S.      Osc.
         1        -0.0000     -0.0000     -0.0814      0.0066      0.0004
         2         0.1135      0.2493     -0.0000      0.0751      0.0110
         3        -0.1837      0.8871      0.0000      0.8207      0.1662
 Ground to excited state transition velocity dipole moments (Au):
       state          X           Y           Z        Dip. S.      Osc.
         1         0.0000     -0.0000      0.0068      0.0000      0.0003
         2        -0.1128      0.0369     -0.0000      0.0141      0.0425
         3         0.0478     -0.1208     -0.0000      0.0169      0.0370
 Ground to excited state transition magnetic dipole moments (Au):
       state          X           Y           Z
         1         0.1917      1.1981      0.0000
         2        -0.0000      0.0000     -1.8038
         3         0.0000      0.0000      0.5724
 Ground to excited state transition velocity quadrupole moments (Au):
       state          XX          YY          ZZ          XY          XZ          YZ
         1        -0.0000      0.0000     -0.0000     -0.0000     -0.0186      0.0076
         2        -0.0040      0.0505      0.0085      0.0416     -0.0000     -0.0000
         3        -0.1222     -0.0640     -0.0805     -0.0185     -0.0000     -0.0000
 <0|del|b> * <b|rxdel|0> + <0|del|b> * <b|delr+rdel|0>
 Rotatory Strengths (R) in cgs (10**-40 erg-esu-cm/Gauss)
       state          XX          YY          ZZ    R(velocity)    E-M Angle
         1        -0.0000      0.0000     -0.0000     -0.0000       90.00
         2         0.0000      0.0000      0.0000      0.0000       90.00
         3        -0.0000     -0.0000      0.0000     -0.0000       90.00
 1/2[<0|r|b>*<b|rxdel|0> + (<0|rxdel|b>*<b|r|0>)*]
 Rotatory Strengths (R) in cgs (10**-40 erg-esu-cm/Gauss)
       state          XX          YY          ZZ     R(length)
         1         0.0000      0.0000      0.0000      0.0000
         2         0.0000     -0.0000     -0.0000     -0.0000
         3         0.0000     -0.0000     -0.0000     -0.0000
  1/2[<0|del|b>*<b|r|0> + (<0|r|b>*<b|del|0>)*] (Au)
       state          X           Y           Z        Dip. S.   Osc.(frdel)
         1        -0.0000      0.0000     -0.0006      0.0006      0.0004
         2        -0.0128      0.0092      0.0000      0.0036      0.0024
         3        -0.0088     -0.1072     -0.0000      0.1159      0.0773

 Excitation energies and oscillator strengths:
 
 Excited State   1:      Singlet-A"     2.4757 eV  500.80 nm  f=0.0004  <S**2>=0.000
       5 ->  9         0.15108
       8 ->  9         0.69400
 This state for optimization and/or second-order correction.
 Total Energy, E(TD-HF/TD-DFT) =  -112.209763891    
 Copying the excited state density for this state as the 1-particle RhoCI density.
 
 Excited State   2:      Singlet-A'     6.0090 eV  206.33 nm  f=0.0110  <S**2>=0.000
       6 ->  9         0.64589
       7 ->  9         0.28357
 
 Excited State   3:      Singlet-A'     8.2638 eV  150.03 nm  f=0.1662  <S**2>=0.000
       6 ->  9        -0.29203
       6 -> 12        -0.18572
       7 ->  9         0.61603
 SavETr:  write IOETrn=   770 NScale= 10 NData=  16 NLR=1 NState=    3 LETran=      64.
          IDoAtm=1111
          Differentiating once with respect to electric field.
                with respect to dipole field.
          Differentiating once with respect to nuclear coordinates.
 Keep R1 ints in memory in symmetry-blocked form, NReq=6415512.
          There are     1 degrees of freedom in the 1st order CPHF.  IDoFFX=0 NUNeed=     1.
 LinEq1:  Iter=  0 NonCon=     1 RMS=1.33D-01 Max=6.04D-01 NDo=     1
 AX will form     1 AO Fock derivatives at one time.
 LinEq1:  Iter=  1 NonCon=     1 RMS=2.44D-02 Max=8.07D-02 NDo=     1
 LinEq1:  Iter=  2 NonCon=     1 RMS=3.91D-03 Max=1.17D-02 NDo=     1
 LinEq1:  Iter=  3 NonCon=     1 RMS=3.77D-04 Max=8.91D-04 NDo=     1
 LinEq1:  Iter=  4 NonCon=     1 RMS=4.94D-05 Max=1.98D-04 NDo=     1
 LinEq1:  Iter=  5 NonCon=     1 RMS=1.16D-05 Max=3.82D-05 NDo=     1
 LinEq1:  Iter=  6 NonCon=     1 RMS=1.30D-06 Max=4.39D-06 NDo=     1
 LinEq1:  Iter=  7 NonCon=     1 RMS=1.19D-07 Max=3.94D-07 NDo=     1
 LinEq1:  Iter=  8 NonCon=     1 RMS=6.23D-09 Max=1.91D-08 NDo=     1
 LinEq1:  Iter=  9 NonCon=     1 RMS=5.66D-10 Max=1.95D-09 NDo=     1
 LinEq1:  Iter= 10 NonCon=     0 RMS=3.98D-11 Max=1.23D-10 NDo=     1
 Linear equations converged to 1.000D-10 1.000D-09 after    10 iterations.
 End of Minotr F.D. properties file   721 does not exist.
 End of Minotr F.D. properties file   722 does not exist.
 End of Minotr F.D. properties file   788 does not exist.

 **********************************************************************

            Population analysis using the SCF Density.

 **********************************************************************

 Orbital symmetries:
       Occupied  (A') (A') (A') (A') (A") (A') (A') (A")
       Virtual   (A') (A') (A") (A')
 The electronic state is 1-A'.
 Alpha  occ. eigenvalues --  -20.29511 -11.09558  -1.25443  -0.79748  -0.58076
 Alpha  occ. eigenvalues --   -0.50135  -0.37149  -0.35838
 Alpha virt. eigenvalues --    0.21257   0.60598   0.66898   0.71839
          Condensed to atoms (all electrons):
               1          2          3          4
     1  C    4.881290   0.360920   0.360920   0.369357
     2  H    0.360920   0.625694  -0.029936  -0.016633
     3  H    0.360920  -0.029936   0.625694  -0.016633
     4  O    0.369357  -0.016633  -0.016633   7.811329
 Mulliken charges:
               1
     1  C    0.027512
     2  H    0.059954
     3  H    0.059954
     4  O   -0.147420
 Sum of Mulliken charges =   0.00000
 Mulliken charges with hydrogens summed into heavy atoms:
               1
     1  C    0.147420
     4  O   -0.147420
 Electronic spatial extent (au):  <R**2>=             64.2678
 Charge=              0.0000 electrons
 Dipole moment (field-independent basis, Debye):
    X=              0.3863    Y=              1.5096    Z=              0.0000  Tot=              1.5582
 Quadrupole moment (field-independent basis, Debye-Ang):
   XX=            -10.3585   YY=            -11.1614   ZZ=            -10.5038
   XY=              0.2071   XZ=              0.0000   YZ=              0.0000
 Traceless Quadrupole moment (field-independent basis, Debye-Ang):
   XX=              0.3160   YY=             -0.4869   ZZ=              0.1708
   XY=              0.2071   XZ=              0.0000   YZ=              0.0000
 Octapole moment (field-independent basis, Debye-Ang**2):
  XXX=             -0.2040  YYY=             -3.2212  ZZZ=             -0.0000  XYY=              0.5227
  XXY=             -1.6042  XXZ=             -0.0000  XZZ=              0.4143  YZZ=             -0.4350
  YYZ=             -0.0000  XYZ=              0.0000
 Hexadecapole moment (field-independent basis, Debye-Ang**3):
 XXXX=             -8.0699 YYYY=            -44.8288 ZZZZ=            -14.8790 XXXY=             -1.7319
 XXXZ=             -0.0000 YYYX=             -1.4570 YYYZ=              0.0000 ZZZX=              0.0000
 ZZZY=             -0.0000 XXYY=             -8.4445 XXZZ=             -3.8681 YYZZ=             -9.1761
 XXYZ=             -0.0000 YYXZ=             -0.0000 ZZXY=             -0.0065
 N-N= 2.843406055472D+01 E-N=-3.221813207147D+02  KE= 1.112208660936D+02
 Symmetry A'   KE= 1.043534666636D+02
 Symmetry A"   KE= 6.867399429937D+00
 Calling FoFJK, ICntrl=  10005127 FMM=F ISym2X=1 I1Cent= 0 IOpClX= 0 NMat=1 NMatS=1 NMatT=0.
 ***** Axes restored to original set *****
 -------------------------------------------------------------------
 Center     Atomic                   Forces (Hartrees/Bohr)
 Number     Number              X              Y              Z
 -------------------------------------------------------------------
      1        6          -0.026121739    0.000000000    0.014575133
      2        1           0.012987042    0.036053063    0.026680234
      3        1           0.012987042   -0.036053063    0.026680234
      4        8           0.000147655   -0.000000000   -0.067935601
 -------------------------------------------------------------------
 Cartesian Forces:  Max     0.067935601 RMS     0.028680264

 GradGradGradGradGradGradGradGradGradGradGradGradGradGradGradGradGradGrad
 Berny optimization.
 FormGI is forming the generalized inverse of G from B-inverse, IUseBI=4.
 Internal  Forces:  Max     0.067832691 RMS     0.036013518
 Search for a local minimum.
 Step number   1 out of a maximum of   20
 All quantities printed in internal units (Hartrees-Bohrs-Radians)
 Mixed Optimization -- RFO/linear search
 Second derivative matrix not updated -- first step.
 The second derivative matrix:
                          R1        R2        R3        A1        A2
           R1           0.28816
           R2           0.00000   0.28816
           R3           0.00000   0.00000   0.52730
           A1           0.00000   0.00000   0.00000   0.16000
           A2           0.00000   0.00000   0.00000   0.00000   0.16000
           A3           0.00000   0.00000   0.00000   0.00000   0.00000
           D1           0.00000   0.00000   0.00000   0.00000   0.00000
                          A3        D1
           A3           0.16000
           D1           0.00000   0.02207
 ITU=  0
     Eigenvalues ---    0.04235   0.16000   0.16000   0.28816   0.28816
     Eigenvalues ---    0.52730
 RFO step:  Lambda=-2.34000182D-02 EMin= 4.23533765D-02
 Linear search not attempted -- first point.
 Iteration  1 RMS(Cart)=  0.10316107 RMS(Int)=  0.00263028
 Iteration  2 RMS(Cart)=  0.00200453 RMS(Int)=  0.00155810
 Iteration  3 RMS(Cart)=  0.00000807 RMS(Int)=  0.00155808
 Iteration  4 RMS(Cart)=  0.00000002 RMS(Int)=  0.00155808
 ClnCor:  largest displacement from symmetrization is 4.41D-14 for atom     3.
 Variable       Old X    -DE/DX   Delta X   Delta X   Delta X     New X
                                 (Linear)    (Quad)   (Total)
    R1        2.17089  -0.04630   0.00000  -0.14860  -0.14860   2.02229
    R2        2.17089  -0.04630   0.00000  -0.14860  -0.14860   2.02229
    R3        2.57206  -0.06783   0.00000  -0.12317  -0.12317   2.44889
    A1        1.96984   0.00798   0.00000   0.03058   0.02790   1.99774
    A2        2.02817  -0.00726   0.00000  -0.04920  -0.05099   1.97718
    A3        2.02817  -0.00726   0.00000  -0.04920  -0.05099   1.97718
    D1       -2.38170   0.00463   0.00000   0.07046   0.06863  -2.31307
         Item               Value     Threshold  Converged?
 Maximum Force            0.067833     0.000450     NO 
 RMS     Force            0.036014     0.000300     NO 
 Maximum Displacement     0.165340     0.001800     NO 
 RMS     Displacement     0.103380     0.001200     NO 
 Predicted change in Energy=-1.250266D-02
 GradGradGradGradGradGradGradGradGradGradGradGradGradGradGradGradGradGrad

                          Input orientation:                          
 ---------------------------------------------------------------------
 Center     Atomic      Atomic             Coordinates (Angstroms)
 Number     Number       Type             X           Y           Z
 ---------------------------------------------------------------------
      1          6           0        0.076356    0.000000   -0.633403
      2          1           0       -0.282629   -0.899847   -1.087969
      3          1           0       -0.282629    0.899847   -1.087969
      4          8           0       -0.031797   -0.000000    0.657973
 ---------------------------------------------------------------------
                    Distance matrix (angstroms):
                    1          2          3          4
     1  C    0.000000
     2  H    1.070152   0.000000
     3  H    1.070152   1.799694   0.000000
     4  O    1.295897   1.980140   1.980140   0.000000
 Stoichiometry    CH2O
 Framework group  CS[SG(CO),X(H2)]
 Deg. of freedom     4
 Full point group                 CS      NOp   2
 Largest Abelian subgroup         CS      NOp   2
 Largest concise Abelian subgroup CS      NOp   2
                         Standard orientation:                         
 ---------------------------------------------------------------------
 Center     Atomic      Atomic             Coordinates (Angstroms)
 Number     Number       Type             X           Y           Z
 ---------------------------------------------------------------------
      1          6           0       -0.049459    0.595071    0.000000
      2          1           0        0.346211    1.018091    0.899847
      3          1           0        0.346211    1.018091   -0.899847
      4          8           0       -0.049459   -0.700826   -0.000000
 ---------------------------------------------------------------------
 Rotational constants (GHZ):         269.9282279          35.2096806          32.0969671
 Standard basis: STO-3G (5D, 7F)
 There are     9 symmetry adapted cartesian basis functions of A'  symmetry.
 There are     3 symmetry adapted cartesian basis functions of A"  symmetry.
 There are     9 symmetry adapted basis functions of A'  symmetry.
 There are     3 symmetry adapted basis functions of A"  symmetry.
    12 basis functions,    36 primitive gaussians,    12 cartesian basis functions
     8 alpha electrons        8 beta electrons
       nuclear repulsion energy        30.1044865155 Hartrees.
 NAtoms=    4 NActive=    4 NUniq=    3 SFac= 1.78D+00 NAtFMM=   60 NAOKFM=F Big=F
 Integral buffers will be    131072 words long.
 Raffenetti 1 integral format.
 Two-electron integral symmetry is turned on.
 One-electron integrals computed using PRISM.
 NBasis=    12 RedAO= T EigKep=  2.39D-01  NBF=     9     3
 NBsUse=    12 1.00D-06 EigRej= -1.00D+00 NBFU=     9     3
 Initial guess from the checkpoint file:  "manual_displacement_CAM-B3LYP.chk"
 B after Tr=     0.000000    0.000000   -0.000000
         Rot=    0.999981    0.000000    0.000000    0.006241 Ang=   0.72 deg.
 Initial guess orbital symmetries:
       Occupied  (A') (A') (A') (A') (A") (A') (A') (A")
       Virtual   (A') (A') (A") (A')
 ExpMin= 1.69D-01 ExpMax= 1.31D+02 ExpMxC= 1.31D+02 IAcc=3 IRadAn=         5 AccDes= 0.00D+00
 Harris functional with IExCor=  205 and IRadAn=       5 diagonalized for initial guess.
 HarFok:  IExCor=  205 AccDes= 0.00D+00 IRadAn=         5 IDoV= 1 UseB2=F ITyADJ=14
 ICtDFT=  3500011 ScaDFX=  1.000000  1.000000  1.000000  1.000000
 FoFCou: FMM=F IPFlag=           0 FMFlag=      100000 FMFlg1=           0
         NFxFlg=           0 DoJE=T BraDBF=F KetDBF=T FulRan=T
         wScrn=  0.000000 ICntrl=       500 IOpCl=  0 I1Cent=   200000004 NGrid=           0
         NMat0=    1 NMatS0=      1 NMatT0=    0 NMatD0=    1 NMtDS0=    0 NMtDT0=    0
 Petite list used in FoFCou.
 Keep R1 ints in memory in symmetry-blocked form, NReq=6414931.
 Requested convergence on RMS density matrix=1.00D-08 within 128 cycles.
 Requested convergence on MAX density matrix=1.00D-06.
 Requested convergence on             energy=1.00D-06.
 No special actions if energy rises.
 SCF Done:  E(RHF) =  -112.314744048     A.U. after   10 cycles
            NFock= 10  Conv=0.82D-08     -V/T= 2.0084
 ExpMin= 1.69D-01 ExpMax= 1.31D+02 ExpMxC= 1.31D+02 IAcc=3 IRadAn=         5 AccDes= 0.00D+00
 HarFok:  IExCor=  205 AccDes= 0.00D+00 IRadAn=         5 IDoV=-2 UseB2=F ITyADJ=14
 ICtDFT= 12500011 ScaDFX=  1.000000  1.000000  1.000000  1.000000
 Range of M.O.s used for correlation:     3    12
 NBasis=    12 NAE=     8 NBE=     8 NFC=     2 NFV=     0
 NROrb=     10 NOA=     6 NOB=     6 NVA=     4 NVB=     4
 Keep R1, R2, and R3 ints in memory in symmetry-blocked form, NReq=6417302.
 Orbital symmetries:
       Occupied  (A') (A') (A') (A') (A") (A') (A') (A")
       Virtual   (A') (A') (A") (A')
 Generating guess from densities on rwf.
 Convergence on wavefunction:    0.000001000000000
 Iteration     1 Dimension     6 NMult     0 NNew      6
 CISAX will form     6 AO SS matrices at one time.
 Iteration     2 Dimension    12 NMult     6 NNew      6
 Iteration     3 Dimension    18 NMult    12 NNew      6
 Iteration     4 Dimension    22 NMult    18 NNew      4
 Iteration     5 Dimension    24 NMult    22 NNew      2
 ***********************************************************************
 Excited states from <AA,BB:AA,BB> singles matrix:
 ***********************************************************************
 
 Ground to excited state transition densities written to RWF  633
 Ground to excited state transition electric dipole moments (Au):
       state          X           Y           Z        Dip. S.      Osc.
         1        -0.0000      0.0000     -0.0809      0.0065      0.0004
         2         0.1228      0.2217     -0.0000      0.0642      0.0107
         3        -0.1865      0.9294      0.0000      0.8985      0.2087
 Ground to excited state transition velocity dipole moments (Au):
       state          X           Y           Z        Dip. S.      Osc.
         1         0.0000      0.0000      0.0069      0.0000      0.0003
         2        -0.1189      0.0317      0.0000      0.0151      0.0405
         3         0.0441     -0.1551     -0.0000      0.0260      0.0498
 Ground to excited state transition magnetic dipole moments (Au):
       state          X           Y           Z
         1         0.1622      1.2425      0.0000
         2         0.0000      0.0000     -1.7999
         3        -0.0000     -0.0000      0.4647
 Ground to excited state transition velocity quadrupole moments (Au):
       state          XX          YY          ZZ          XY          XZ          YZ
         1         0.0000      0.0000      0.0000     -0.0000     -0.0173      0.0092
         2         0.0038      0.0524      0.0110      0.0674      0.0000      0.0000
         3        -0.1440     -0.0514     -0.0944     -0.0120     -0.0000     -0.0000
 <0|del|b> * <b|rxdel|0> + <0|del|b> * <b|delr+rdel|0>
 Rotatory Strengths (R) in cgs (10**-40 erg-esu-cm/Gauss)
       state          XX          YY          ZZ    R(velocity)    E-M Angle
         1         0.0000      0.0000      0.0000      0.0000       90.00
         2        -0.0000     -0.0000      0.0000     -0.0000       90.00
         3        -0.0000     -0.0000      0.0000     -0.0000       90.00
 1/2[<0|r|b>*<b|rxdel|0> + (<0|rxdel|b>*<b|r|0>)*]
 Rotatory Strengths (R) in cgs (10**-40 erg-esu-cm/Gauss)
       state          XX          YY          ZZ     R(length)
         1         0.0000     -0.0000      0.0000     -0.0000
         2        -0.0000     -0.0000     -0.0000     -0.0000
         3        -0.0000      0.0000     -0.0000     -0.0000
  1/2[<0|del|b>*<b|r|0> + (<0|r|b>*<b|del|0>)*] (Au)
       state          X           Y           Z        Dip. S.   Osc.(frdel)
         1        -0.0000      0.0000     -0.0006      0.0006      0.0004
         2        -0.0146      0.0070     -0.0000      0.0076      0.0050
         3        -0.0082     -0.1442     -0.0000      0.1524      0.1016

 Excitation energies and oscillator strengths:
 
 Excited State   1:      Singlet-A"     2.6548 eV  467.02 nm  f=0.0004  <S**2>=0.000
       5 ->  9         0.13689
       8 ->  9         0.69681
 This state for optimization and/or second-order correction.
 Total Energy, E(TD-HF/TD-DFT) =  -112.217181419    
 Copying the excited state density for this state as the 1-particle RhoCI density.
 
 Excited State   2:      Singlet-A'     6.7749 eV  183.01 nm  f=0.0107  <S**2>=0.000
       6 ->  9         0.65313
       7 ->  9         0.26494
 
 Excited State   3:      Singlet-A'     9.4789 eV  130.80 nm  f=0.2087  <S**2>=0.000
       6 ->  9        -0.27180
       6 -> 12        -0.17832
       7 ->  9         0.63007
 SavETr:  write IOETrn=   770 NScale= 10 NData=  16 NLR=1 NState=    3 LETran=      64.
          IDoAtm=1111
          Differentiating once with respect to electric field.
                with respect to dipole field.
          Differentiating once with respect to nuclear coordinates.
 Keep R1 ints in memory in symmetry-blocked form, NReq=6415512.
          There are     1 degrees of freedom in the 1st order CPHF.  IDoFFX=0 NUNeed=     1.
 LinEq1:  Iter=  0 NonCon=     1 RMS=1.13D-01 Max=5.17D-01 NDo=     1
 AX will form     1 AO Fock derivatives at one time.
 LinEq1:  Iter=  1 NonCon=     1 RMS=1.81D-02 Max=5.27D-02 NDo=     1
 LinEq1:  Iter=  2 NonCon=     1 RMS=2.49D-03 Max=8.49D-03 NDo=     1
 LinEq1:  Iter=  3 NonCon=     1 RMS=2.81D-04 Max=7.96D-04 NDo=     1
 LinEq1:  Iter=  4 NonCon=     1 RMS=2.88D-05 Max=9.57D-05 NDo=     1
 LinEq1:  Iter=  5 NonCon=     1 RMS=5.81D-06 Max=2.33D-05 NDo=     1
 LinEq1:  Iter=  6 NonCon=     1 RMS=6.38D-07 Max=2.40D-06 NDo=     1
 LinEq1:  Iter=  7 NonCon=     1 RMS=5.85D-08 Max=2.12D-07 NDo=     1
 LinEq1:  Iter=  8 NonCon=     1 RMS=3.63D-09 Max=9.77D-09 NDo=     1
 LinEq1:  Iter=  9 NonCon=     1 RMS=3.85D-10 Max=9.60D-10 NDo=     1
 LinEq1:  Iter= 10 NonCon=     0 RMS=1.87D-11 Max=4.30D-11 NDo=     1
 Linear equations converged to 1.000D-10 1.000D-09 after    10 iterations.
 End of Minotr F.D. properties file   721 does not exist.
 End of Minotr F.D. properties file   722 does not exist.
 End of Minotr F.D. properties file   788 does not exist.
 Calling FoFJK, ICntrl=  10005127 FMM=F ISym2X=1 I1Cent= 0 IOpClX= 0 NMat=1 NMatS=1 NMatT=0.
 ***** Axes restored to original set *****
 -------------------------------------------------------------------
 Center     Atomic                   Forces (Hartrees/Bohr)
 Number     Number              X              Y              Z
 -------------------------------------------------------------------
      1        6           0.002675005   -0.000000000   -0.008816854
      2        1          -0.002339808   -0.015548931   -0.011301290
      3        1          -0.002339808    0.015548931   -0.011301290
      4        8           0.002004611   -0.000000000    0.031419433
 -------------------------------------------------------------------
 Cartesian Forces:  Max     0.031419433 RMS     0.012335646

 GradGradGradGradGradGradGradGradGradGradGradGradGradGradGradGradGradGrad
 Berny optimization.
 Using GEDIIS/GDIIS optimizer.
 FormGI is forming the generalized inverse of G from B-inverse, IUseBI=4.
 Internal  Forces:  Max     0.031142522 RMS     0.016105865
 Search for a local minimum.
 Step number   2 out of a maximum of   20
 All quantities printed in internal units (Hartrees-Bohrs-Radians)
 Mixed Optimization -- RFO/linear search
 Update second derivatives using D2CorX and points    1    2
 DE= -7.42D-03 DEPred=-1.25D-02 R= 5.93D-01
 TightC=F SS=  1.41D+00  RLast= 2.65D-01 DXNew= 5.0454D-01 7.9387D-01
 Trust test= 5.93D-01 RLast= 2.65D-01 DXMaxT set to 5.05D-01
 The second derivative matrix:
                          R1        R2        R3        A1        A2
           R1           0.32795
           R2           0.03979   0.32795
           R3           0.06121   0.06121   0.62145
           A1          -0.01190  -0.01190  -0.01819   0.16253
           A2           0.00969   0.00969   0.01488  -0.00262   0.16228
           A3           0.00969   0.00969   0.01488  -0.00262   0.00228
           D1          -0.02114  -0.02114  -0.03223   0.00371  -0.00444
                          A3        D1
           A3           0.16228
           D1          -0.00444   0.02665
 ITU=  1  0
 Use linear search instead of GDIIS.
     Eigenvalues ---    0.05091   0.16000   0.16347   0.28816   0.34355
     Eigenvalues ---    0.65282
 RFO step:  Lambda=-3.35745395D-04 EMin= 5.09106960D-02
 Quartic linear search produced a step of -0.27554.
 Iteration  1 RMS(Cart)=  0.03871338 RMS(Int)=  0.00114679
 Iteration  2 RMS(Cart)=  0.00060687 RMS(Int)=  0.00088655
 Iteration  3 RMS(Cart)=  0.00000067 RMS(Int)=  0.00088655
 ClnCor:  largest displacement from symmetrization is 1.80D-12 for atom     3.
 Variable       Old X    -DE/DX   Delta X   Delta X   Delta X     New X
                                 (Linear)    (Quad)   (Total)
    R1        2.02229   0.01866   0.04095  -0.00961   0.03134   2.05363
    R2        2.02229   0.01866   0.04095  -0.00961   0.03134   2.05363
    R3        2.44889   0.03114   0.03394   0.00068   0.03462   2.48351
    A1        1.99774  -0.00285  -0.00769   0.02037   0.01119   2.00893
    A2        1.97718   0.00622   0.01405   0.01947   0.03242   2.00960
    A3        1.97718   0.00622   0.01405   0.01947   0.03242   2.00960
    D1       -2.31307  -0.00800  -0.01891  -0.06793  -0.08776  -2.40083
         Item               Value     Threshold  Converged?
 Maximum Force            0.031143     0.000450     NO 
 RMS     Force            0.016106     0.000300     NO 
 Maximum Displacement     0.054259     0.001800     NO 
 RMS     Displacement     0.038466     0.001200     NO 
 Predicted change in Energy=-1.878088D-03
 GradGradGradGradGradGradGradGradGradGradGradGradGradGradGradGradGradGrad

                          Input orientation:                          
 ---------------------------------------------------------------------
 Center     Atomic      Atomic             Coordinates (Angstroms)
 Number     Number       Type             X           Y           Z
 ---------------------------------------------------------------------
      1          6           0        0.053028    0.000000   -0.625503
      2          1           0       -0.276878   -0.917069   -1.106275
      3          1           0       -0.276878    0.917069   -1.106275
      4          8           0       -0.019972   -0.000000    0.686685
 ---------------------------------------------------------------------
                    Distance matrix (angstroms):
                    1          2          3          4
     1  C    0.000000
     2  H    1.086736   0.000000
     3  H    1.086736   1.834138   0.000000
     4  O    1.314217   2.030203   2.030203   0.000000
 Stoichiometry    CH2O
 Framework group  CS[SG(CO),X(H2)]
 Deg. of freedom     4
 Full point group                 CS      NOp   2
 Largest Abelian subgroup         CS      NOp   2
 Largest concise Abelian subgroup CS      NOp   2
                         Standard orientation:                         
 ---------------------------------------------------------------------
 Center     Atomic      Atomic             Coordinates (Angstroms)
 Number     Number       Type             X           Y           Z
 ---------------------------------------------------------------------
      1          6           0       -0.044513    0.599396   -0.000000
      2          1           0        0.311589    1.061100    0.917069
      3          1           0        0.311589    1.061100   -0.917069
      4          8           0       -0.044513   -0.714822    0.000000
 ---------------------------------------------------------------------
 Rotational constants (GHZ):         267.6944878          34.0438908          30.9149139
 Standard basis: STO-3G (5D, 7F)
 There are     9 symmetry adapted cartesian basis functions of A'  symmetry.
 There are     3 symmetry adapted cartesian basis functions of A"  symmetry.
 There are     9 symmetry adapted basis functions of A'  symmetry.
 There are     3 symmetry adapted basis functions of A"  symmetry.
    12 basis functions,    36 primitive gaussians,    12 cartesian basis functions
     8 alpha electrons        8 beta electrons
       nuclear repulsion energy        29.6297314067 Hartrees.
 NAtoms=    4 NActive=    4 NUniq=    3 SFac= 1.78D+00 NAtFMM=   60 NAOKFM=F Big=F
 Integral buffers will be    131072 words long.
 Raffenetti 1 integral format.
 Two-electron integral symmetry is turned on.
 One-electron integrals computed using PRISM.
 NBasis=    12 RedAO= T EigKep=  2.53D-01  NBF=     9     3
 NBsUse=    12 1.00D-06 EigRej= -1.00D+00 NBFU=     9     3
 Initial guess from the checkpoint file:  "manual_displacement_CAM-B3LYP.chk"
 B after Tr=     0.000000   -0.000000    0.000000
         Rot=    0.999978    0.000000    0.000000   -0.006697 Ang=  -0.77 deg.
 Initial guess orbital symmetries:
       Occupied  (A') (A') (A') (A') (A") (A') (A') (A")
       Virtual   (A') (A') (A") (A')
 ExpMin= 1.69D-01 ExpMax= 1.31D+02 ExpMxC= 1.31D+02 IAcc=3 IRadAn=         5 AccDes= 0.00D+00
 Harris functional with IExCor=  205 and IRadAn=       5 diagonalized for initial guess.
 HarFok:  IExCor=  205 AccDes= 0.00D+00 IRadAn=         5 IDoV= 1 UseB2=F ITyADJ=14
 ICtDFT=  3500011 ScaDFX=  1.000000  1.000000  1.000000  1.000000
 FoFCou: FMM=F IPFlag=           0 FMFlag=      100000 FMFlg1=           0
         NFxFlg=           0 DoJE=T BraDBF=F KetDBF=T FulRan=T
         wScrn=  0.000000 ICntrl=       500 IOpCl=  0 I1Cent=   200000004 NGrid=           0
         NMat0=    1 NMatS0=      1 NMatT0=    0 NMatD0=    1 NMtDS0=    0 NMtDT0=    0
 Petite list used in FoFCou.
 Keep R1 ints in memory in symmetry-blocked form, NReq=6414882.
 Requested convergence on RMS density matrix=1.00D-08 within 128 cycles.
 Requested convergence on MAX density matrix=1.00D-06.
 Requested convergence on             energy=1.00D-06.
 No special actions if energy rises.
 SCF Done:  E(RHF) =  -112.318521198     A.U. after   10 cycles
            NFock= 10  Conv=0.28D-08     -V/T= 2.0089
 ExpMin= 1.69D-01 ExpMax= 1.31D+02 ExpMxC= 1.31D+02 IAcc=3 IRadAn=         5 AccDes= 0.00D+00
 HarFok:  IExCor=  205 AccDes= 0.00D+00 IRadAn=         5 IDoV=-2 UseB2=F ITyADJ=14
 ICtDFT= 12500011 ScaDFX=  1.000000  1.000000  1.000000  1.000000
 Range of M.O.s used for correlation:     3    12
 NBasis=    12 NAE=     8 NBE=     8 NFC=     2 NFV=     0
 NROrb=     10 NOA=     6 NOB=     6 NVA=     4 NVB=     4
 Keep R1, R2, and R3 ints in memory in symmetry-blocked form, NReq=6417253.
 Orbital symmetries:
       Occupied  (A') (A') (A') (A') (A") (A') (A') (A")
       Virtual   (A') (A') (A") (A')
 Generating guess from densities on rwf.
 Convergence on wavefunction:    0.000001000000000
 Iteration     1 Dimension     6 NMult     0 NNew      6
 CISAX will form     6 AO SS matrices at one time.
 Iteration     2 Dimension    12 NMult     6 NNew      6
 Iteration     3 Dimension    18 NMult    12 NNew      6
 Iteration     4 Dimension    22 NMult    18 NNew      4
 Iteration     5 Dimension    24 NMult    22 NNew      2
 ***********************************************************************
 Excited states from <AA,BB:AA,BB> singles matrix:
 ***********************************************************************
 
 Ground to excited state transition densities written to RWF  633
 Ground to excited state transition electric dipole moments (Au):
       state          X           Y           Z        Dip. S.      Osc.
         1        -0.0000      0.0000     -0.0748      0.0056      0.0004
         2         0.1318      0.2165     -0.0000      0.0642      0.0105
         3        -0.1794      0.9152     -0.0000      0.8698      0.1954
 Ground to excited state transition velocity dipole moments (Au):
       state          X           Y           Z        Dip. S.      Osc.
         1        -0.0000     -0.0000      0.0064      0.0000      0.0003
         2        -0.1208      0.0308     -0.0000      0.0155      0.0421
         3         0.0452     -0.1423     -0.0000      0.0223      0.0441
 Ground to excited state transition magnetic dipole moments (Au):
       state          X           Y           Z
         1         0.1559      1.2206     -0.0000
         2        -0.0000      0.0000     -1.8043
         3         0.0000     -0.0000      0.4715
 Ground to excited state transition velocity quadrupole moments (Au):
       state          XX          YY          ZZ          XY          XZ          YZ
         1         0.0000     -0.0000     -0.0000      0.0000     -0.0184      0.0081
         2         0.0001      0.0486      0.0106      0.0588     -0.0000     -0.0000
         3        -0.1349     -0.0506     -0.0860     -0.0118      0.0000     -0.0000
 <0|del|b> * <b|rxdel|0> + <0|del|b> * <b|delr+rdel|0>
 Rotatory Strengths (R) in cgs (10**-40 erg-esu-cm/Gauss)
       state          XX          YY          ZZ    R(velocity)    E-M Angle
         1        -0.0000     -0.0000     -0.0000     -0.0000       90.00
         2         0.0000      0.0000      0.0000      0.0000       90.00
         3         0.0000     -0.0000      0.0000      0.0000       90.00
 1/2[<0|r|b>*<b|rxdel|0> + (<0|rxdel|b>*<b|r|0>)*]
 Rotatory Strengths (R) in cgs (10**-40 erg-esu-cm/Gauss)
       state          XX          YY          ZZ     R(length)
         1         0.0000     -0.0000     -0.0000     -0.0000
         2         0.0000     -0.0000     -0.0000     -0.0000
         3         0.0000      0.0000      0.0000      0.0000
  1/2[<0|del|b>*<b|r|0> + (<0|r|b>*<b|del|0>)*] (Au)
       state          X           Y           Z        Dip. S.   Osc.(frdel)
         1         0.0000     -0.0000     -0.0005      0.0005      0.0003
         2        -0.0159      0.0067      0.0000      0.0092      0.0062
         3        -0.0081     -0.1302      0.0000      0.1384      0.0922

 Excitation energies and oscillator strengths:
 
 Excited State   1:      Singlet-A"     2.7106 eV  457.40 nm  f=0.0004  <S**2>=0.000
       5 ->  9         0.13607
       8 ->  9         0.69689
 This state for optimization and/or second-order correction.
 Total Energy, E(TD-HF/TD-DFT) =  -112.218907951    
 Copying the excited state density for this state as the 1-particle RhoCI density.
 
 Excited State   2:      Singlet-A'     6.6965 eV  185.15 nm  f=0.0105  <S**2>=0.000
       6 ->  9         0.65856
       7 ->  9         0.25354
 
 Excited State   3:      Singlet-A'     9.1676 eV  135.24 nm  f=0.1954  <S**2>=0.000
       6 ->  9        -0.26002
       6 -> 12        -0.18623
       7 ->  9         0.63313
 SavETr:  write IOETrn=   770 NScale= 10 NData=  16 NLR=1 NState=    3 LETran=      64.
          IDoAtm=1111
          Differentiating once with respect to electric field.
                with respect to dipole field.
          Differentiating once with respect to nuclear coordinates.
 Keep R1 ints in memory in symmetry-blocked form, NReq=6415512.
          There are     1 degrees of freedom in the 1st order CPHF.  IDoFFX=0 NUNeed=     1.
 LinEq1:  Iter=  0 NonCon=     1 RMS=1.18D-01 Max=5.43D-01 NDo=     1
 AX will form     1 AO Fock derivatives at one time.
 LinEq1:  Iter=  1 NonCon=     1 RMS=1.96D-02 Max=6.24D-02 NDo=     1
 LinEq1:  Iter=  2 NonCon=     1 RMS=2.88D-03 Max=9.13D-03 NDo=     1
 LinEq1:  Iter=  3 NonCon=     1 RMS=3.03D-04 Max=7.90D-04 NDo=     1
 LinEq1:  Iter=  4 NonCon=     1 RMS=3.32D-05 Max=1.20D-04 NDo=     1
 LinEq1:  Iter=  5 NonCon=     1 RMS=7.22D-06 Max=2.73D-05 NDo=     1
 LinEq1:  Iter=  6 NonCon=     1 RMS=7.47D-07 Max=2.65D-06 NDo=     1
 LinEq1:  Iter=  7 NonCon=     1 RMS=7.06D-08 Max=2.35D-07 NDo=     1
 LinEq1:  Iter=  8 NonCon=     1 RMS=4.17D-09 Max=1.22D-08 NDo=     1
 LinEq1:  Iter=  9 NonCon=     1 RMS=4.48D-10 Max=1.17D-09 NDo=     1
 LinEq1:  Iter= 10 NonCon=     0 RMS=2.33D-11 Max=6.87D-11 NDo=     1
 Linear equations converged to 1.000D-10 1.000D-09 after    10 iterations.
 End of Minotr F.D. properties file   721 does not exist.
 End of Minotr F.D. properties file   722 does not exist.
 End of Minotr F.D. properties file   788 does not exist.
 Calling FoFJK, ICntrl=  10005127 FMM=F ISym2X=1 I1Cent= 0 IOpClX= 0 NMat=1 NMatS=1 NMatT=0.
 ***** Axes restored to original set *****
 -------------------------------------------------------------------
 Center     Atomic                   Forces (Hartrees/Bohr)
 Number     Number              X              Y              Z
 -------------------------------------------------------------------
      1        6          -0.003212447   -0.000000000    0.003642328
      2        1           0.001053671   -0.001461149   -0.000332927
      3        1           0.001053671    0.001461149   -0.000332927
      4        8           0.001105104    0.000000000   -0.002976475
 -------------------------------------------------------------------
 Cartesian Forces:  Max     0.003642328 RMS     0.001834372

 GradGradGradGradGradGradGradGradGradGradGradGradGradGradGradGradGradGrad
 Berny optimization.
 Using GEDIIS/GDIIS optimizer.
 FormGI is forming the generalized inverse of G from B-inverse, IUseBI=4.
 Internal  Forces:  Max     0.003033264 RMS     0.001591364
 Search for a local minimum.
 Step number   3 out of a maximum of   20
 All quantities printed in internal units (Hartrees-Bohrs-Radians)
 Mixed Optimization -- RFO/linear search
 Update second derivatives using D2CorX and points    1    2    3
 DE= -1.73D-03 DEPred=-1.88D-03 R= 9.19D-01
 TightC=F SS=  1.41D+00  RLast= 1.14D-01 DXNew= 8.4853D-01 3.4325D-01
 Trust test= 9.19D-01 RLast= 1.14D-01 DXMaxT set to 5.05D-01
 The second derivative matrix:
                          R1        R2        R3        A1        A2
           R1           0.33862
           R2           0.05046   0.33862
           R3           0.09154   0.09154   0.70401
           A1          -0.02958  -0.02958  -0.05477   0.16287
           A2           0.00555   0.00555   0.01161  -0.01159   0.15561
           A3           0.00555   0.00555   0.01161  -0.01159  -0.00439
           D1          -0.02515  -0.02515  -0.04473   0.01071  -0.00303
                          A3        D1
           A3           0.15561
           D1          -0.00303   0.02846
 ITU=  1  1  0
 Use linear search instead of GDIIS.
     Eigenvalues ---    0.03969   0.16000   0.16549   0.28816   0.34515
     Eigenvalues ---    0.75876
 RFO step:  Lambda=-1.82521864D-04 EMin= 3.96863361D-02
 Quartic linear search produced a step of  0.06901.
 Iteration  1 RMS(Cart)=  0.01533859 RMS(Int)=  0.00058528
 Iteration  2 RMS(Cart)=  0.00028537 RMS(Int)=  0.00050895
 Iteration  3 RMS(Cart)=  0.00000001 RMS(Int)=  0.00050895
 ClnCor:  largest displacement from symmetrization is 6.34D-14 for atom     3.
 Variable       Old X    -DE/DX   Delta X   Delta X   Delta X     New X
                                 (Linear)    (Quad)   (Total)
    R1        2.05363   0.00106   0.00216  -0.00038   0.00178   2.05542
    R2        2.05363   0.00106   0.00216  -0.00038   0.00178   2.05542
    R3        2.48351  -0.00303   0.00239  -0.00985  -0.00746   2.47605
    A1        2.00893   0.00077   0.00077   0.01844   0.01837   2.02730
    A2        2.00960   0.00043   0.00224   0.00998   0.01156   2.02116
    A3        2.00960   0.00043   0.00224   0.00998   0.01156   2.02116
    D1       -2.40083  -0.00230  -0.00606  -0.05432  -0.06086  -2.46168
         Item               Value     Threshold  Converged?
 Maximum Force            0.003033     0.000450     NO 
 RMS     Force            0.001591     0.000300     NO 
 Maximum Displacement     0.031192     0.001800     NO 
 RMS     Displacement     0.015253     0.001200     NO 
 Predicted change in Energy=-9.547849D-05
 GradGradGradGradGradGradGradGradGradGradGradGradGradGradGradGradGradGrad

                          Input orientation:                          
 ---------------------------------------------------------------------
 Center     Atomic      Atomic             Coordinates (Angstroms)
 Number     Number       Type             X           Y           Z
 ---------------------------------------------------------------------
      1          6           0        0.036522    0.000000   -0.622206
      2          1           0       -0.271168   -0.923185   -1.108109
      3          1           0       -0.271168    0.923185   -1.108109
      4          8           0       -0.014886   -0.000000    0.687056
 ---------------------------------------------------------------------
                    Distance matrix (angstroms):
                    1          2          3          4
     1  C    0.000000
     2  H    1.087679   0.000000
     3  H    1.087679   1.846370   0.000000
     4  O    1.310271   2.034839   2.034839   0.000000
 Stoichiometry    CH2O
 Framework group  CS[SG(CO),X(H2)]
 Deg. of freedom     4
 Full point group                 CS      NOp   2
 Largest Abelian subgroup         CS      NOp   2
 Largest concise Abelian subgroup CS      NOp   2
                         Standard orientation:                         
 ---------------------------------------------------------------------
 Center     Atomic      Atomic             Coordinates (Angstroms)
 Number     Number       Type             X           Y           Z
 ---------------------------------------------------------------------
      1          6           0       -0.040815    0.595954   -0.000000
      2          1           0        0.285703    1.069410    0.923185
      3          1           0        0.285703    1.069410   -0.923185
      4          8           0       -0.040815   -0.714318    0.000000
 ---------------------------------------------------------------------
 Rotational constants (GHZ):         268.9191740          34.1947654          30.9367332
 Standard basis: STO-3G (5D, 7F)
 There are     9 symmetry adapted cartesian basis functions of A'  symmetry.
 There are     3 symmetry adapted cartesian basis functions of A"  symmetry.
 There are     9 symmetry adapted basis functions of A'  symmetry.
 There are     3 symmetry adapted basis functions of A"  symmetry.
    12 basis functions,    36 primitive gaussians,    12 cartesian basis functions
     8 alpha electrons        8 beta electrons
       nuclear repulsion energy        29.6714604046 Hartrees.
 NAtoms=    4 NActive=    4 NUniq=    3 SFac= 1.78D+00 NAtFMM=   60 NAOKFM=F Big=F
 Integral buffers will be    131072 words long.
 Raffenetti 1 integral format.
 Two-electron integral symmetry is turned on.
 One-electron integrals computed using PRISM.
 NBasis=    12 RedAO= T EigKep=  2.54D-01  NBF=     9     3
 NBsUse=    12 1.00D-06 EigRej= -1.00D+00 NBFU=     9     3
 Initial guess from the checkpoint file:  "manual_displacement_CAM-B3LYP.chk"
 B after Tr=    -0.000000   -0.000000    0.000000
         Rot=    0.999992   -0.000000   -0.000000   -0.003948 Ang=  -0.45 deg.
 Initial guess orbital symmetries:
       Occupied  (A') (A') (A') (A') (A") (A') (A') (A")
       Virtual   (A') (A') (A") (A')
 ExpMin= 1.69D-01 ExpMax= 1.31D+02 ExpMxC= 1.31D+02 IAcc=3 IRadAn=         5 AccDes= 0.00D+00
 Harris functional with IExCor=  205 and IRadAn=       5 diagonalized for initial guess.
 HarFok:  IExCor=  205 AccDes= 0.00D+00 IRadAn=         5 IDoV= 1 UseB2=F ITyADJ=14
 ICtDFT=  3500011 ScaDFX=  1.000000  1.000000  1.000000  1.000000
 FoFCou: FMM=F IPFlag=           0 FMFlag=      100000 FMFlg1=           0
         NFxFlg=           0 DoJE=T BraDBF=F KetDBF=T FulRan=T
         wScrn=  0.000000 ICntrl=       500 IOpCl=  0 I1Cent=   200000004 NGrid=           0
         NMat0=    1 NMatS0=      1 NMatT0=    0 NMatD0=    1 NMtDS0=    0 NMtDT0=    0
 Petite list used in FoFCou.
 Keep R1 ints in memory in symmetry-blocked form, NReq=6414882.
 Requested convergence on RMS density matrix=1.00D-08 within 128 cycles.
 Requested convergence on MAX density matrix=1.00D-06.
 Requested convergence on             energy=1.00D-06.
 No special actions if energy rises.
 SCF Done:  E(RHF) =  -112.322798912     A.U. after   10 cycles
            NFock= 10  Conv=0.27D-08     -V/T= 2.0090
 ExpMin= 1.69D-01 ExpMax= 1.31D+02 ExpMxC= 1.31D+02 IAcc=3 IRadAn=         5 AccDes= 0.00D+00
 HarFok:  IExCor=  205 AccDes= 0.00D+00 IRadAn=         5 IDoV=-2 UseB2=F ITyADJ=14
 ICtDFT= 12500011 ScaDFX=  1.000000  1.000000  1.000000  1.000000
 Range of M.O.s used for correlation:     3    12
 NBasis=    12 NAE=     8 NBE=     8 NFC=     2 NFV=     0
 NROrb=     10 NOA=     6 NOB=     6 NVA=     4 NVB=     4
 Keep R1, R2, and R3 ints in memory in symmetry-blocked form, NReq=6417253.
 Orbital symmetries:
       Occupied  (A') (A') (A') (A') (A") (A') (A') (A")
       Virtual   (A') (A') (A") (A')
 Generating guess from densities on rwf.
 Convergence on wavefunction:    0.000001000000000
 Iteration     1 Dimension     6 NMult     0 NNew      6
 CISAX will form     6 AO SS matrices at one time.
 Iteration     2 Dimension    12 NMult     6 NNew      6
 Iteration     3 Dimension    18 NMult    12 NNew      6
 Iteration     4 Dimension    22 NMult    18 NNew      4
 Iteration     5 Dimension    23 NMult    22 NNew      1
 Iteration     6 Dimension    24 NMult    23 NNew      1
 ***********************************************************************
 Excited states from <AA,BB:AA,BB> singles matrix:
 ***********************************************************************
 
 Ground to excited state transition densities written to RWF  633
 Ground to excited state transition electric dipole moments (Au):
       state          X           Y           Z        Dip. S.      Osc.
         1         0.0000      0.0000     -0.0714      0.0051      0.0004
         2         0.1407      0.2023     -0.0000      0.0607      0.0102
         3        -0.1716      0.9134      0.0000      0.8637      0.1961
 Ground to excited state transition velocity dipole moments (Au):
       state          X           Y           Z        Dip. S.      Osc.
         1        -0.0000     -0.0000      0.0062      0.0000      0.0002
         2        -0.1239      0.0284      0.0000      0.0162      0.0427
         3         0.0440     -0.1417      0.0000      0.0220      0.0431
 Ground to excited state transition magnetic dipole moments (Au):
       state          X           Y           Z
         1         0.1431      1.2113      0.0000
         2         0.0000     -0.0000     -1.8058
         3        -0.0000     -0.0000      0.4454
 Ground to excited state transition velocity quadrupole moments (Au):
       state          XX          YY          ZZ          XY          XZ          YZ
         1        -0.0000     -0.0000     -0.0000     -0.0000     -0.0190      0.0081
         2        -0.0007      0.0454      0.0111      0.0588      0.0000      0.0000
         3        -0.1338     -0.0456     -0.0836     -0.0101      0.0000      0.0000
 <0|del|b> * <b|rxdel|0> + <0|del|b> * <b|delr+rdel|0>
 Rotatory Strengths (R) in cgs (10**-40 erg-esu-cm/Gauss)
       state          XX          YY          ZZ    R(velocity)    E-M Angle
         1        -0.0000     -0.0000     -0.0000     -0.0000       90.00
         2        -0.0000     -0.0000      0.0000     -0.0000       90.00
         3         0.0000      0.0000     -0.0000      0.0000       90.00
 1/2[<0|r|b>*<b|rxdel|0> + (<0|rxdel|b>*<b|r|0>)*]
 Rotatory Strengths (R) in cgs (10**-40 erg-esu-cm/Gauss)
       state          XX          YY          ZZ     R(length)
         1        -0.0000     -0.0000      0.0000     -0.0000
         2        -0.0000      0.0000     -0.0000     -0.0000
         3        -0.0000      0.0000     -0.0000     -0.0000
  1/2[<0|del|b>*<b|r|0> + (<0|r|b>*<b|del|0>)*] (Au)
       state          X           Y           Z        Dip. S.   Osc.(frdel)
         1        -0.0000     -0.0000     -0.0004      0.0004      0.0003
         2        -0.0174      0.0057     -0.0000      0.0117      0.0078
         3        -0.0075     -0.1294      0.0000      0.1370      0.0913

 Excitation energies and oscillator strengths:
 
 Excited State   1:      Singlet-A"     2.8238 eV  439.06 nm  f=0.0004  <S**2>=0.000
       5 ->  9         0.13389
       8 ->  9         0.69710
 This state for optimization and/or second-order correction.
 Total Energy, E(TD-HF/TD-DFT) =  -112.219024524    
 Copying the excited state density for this state as the 1-particle RhoCI density.
 
 Excited State   2:      Singlet-A'     6.8614 eV  180.70 nm  f=0.0102  <S**2>=0.000
       6 ->  9         0.66457
       7 ->  9         0.23830
 
 Excited State   3:      Singlet-A'     9.2669 eV  133.79 nm  f=0.1961  <S**2>=0.000
       6 ->  9        -0.24411
       6 -> 12        -0.18613
       7 ->  9         0.63907
 SavETr:  write IOETrn=   770 NScale= 10 NData=  16 NLR=1 NState=    3 LETran=      64.
          IDoAtm=1111
          Differentiating once with respect to electric field.
                with respect to dipole field.
          Differentiating once with respect to nuclear coordinates.
 Keep R1 ints in memory in symmetry-blocked form, NReq=6415512.
          There are     1 degrees of freedom in the 1st order CPHF.  IDoFFX=0 NUNeed=     1.
 LinEq1:  Iter=  0 NonCon=     1 RMS=1.18D-01 Max=5.39D-01 NDo=     1
 AX will form     1 AO Fock derivatives at one time.
 LinEq1:  Iter=  1 NonCon=     1 RMS=1.94D-02 Max=6.16D-02 NDo=     1
 LinEq1:  Iter=  2 NonCon=     1 RMS=2.83D-03 Max=8.97D-03 NDo=     1
 LinEq1:  Iter=  3 NonCon=     1 RMS=3.07D-04 Max=8.18D-04 NDo=     1
 LinEq1:  Iter=  4 NonCon=     1 RMS=3.22D-05 Max=1.10D-04 NDo=     1
 LinEq1:  Iter=  5 NonCon=     1 RMS=6.91D-06 Max=2.74D-05 NDo=     1
 LinEq1:  Iter=  6 NonCon=     1 RMS=6.90D-07 Max=2.27D-06 NDo=     1
 LinEq1:  Iter=  7 NonCon=     1 RMS=6.73D-08 Max=2.01D-07 NDo=     1
 LinEq1:  Iter=  8 NonCon=     1 RMS=4.21D-09 Max=1.23D-08 NDo=     1
 LinEq1:  Iter=  9 NonCon=     1 RMS=4.52D-10 Max=1.14D-09 NDo=     1
 LinEq1:  Iter= 10 NonCon=     0 RMS=2.35D-11 Max=7.39D-11 NDo=     1
 Linear equations converged to 1.000D-10 1.000D-09 after    10 iterations.
 End of Minotr F.D. properties file   721 does not exist.
 End of Minotr F.D. properties file   722 does not exist.
 End of Minotr F.D. properties file   788 does not exist.
 Calling FoFJK, ICntrl=  10005127 FMM=F ISym2X=1 I1Cent= 0 IOpClX= 0 NMat=1 NMatS=1 NMatT=0.
 ***** Axes restored to original set *****
 -------------------------------------------------------------------
 Center     Atomic                   Forces (Hartrees/Bohr)
 Number     Number              X              Y              Z
 -------------------------------------------------------------------
      1        6          -0.001702145    0.000000000   -0.001731493
      2        1           0.000712953    0.000534042    0.000472470
      3        1           0.000712953   -0.000534042    0.000472470
      4        8           0.000276238   -0.000000000    0.000786554
 -------------------------------------------------------------------
 Cartesian Forces:  Max     0.001731493 RMS     0.000847732

 GradGradGradGradGradGradGradGradGradGradGradGradGradGradGradGradGradGrad
 Berny optimization.
 Using GEDIIS/GDIIS optimizer.
 FormGI is forming the generalized inverse of G from B-inverse, IUseBI=4.
 Internal  Forces:  Max     0.000866030 RMS     0.000632963
 Search for a local minimum.
 Step number   4 out of a maximum of   20
 All quantities printed in internal units (Hartrees-Bohrs-Radians)
 Mixed Optimization -- En-DIIS/RFO-DIIS
 Update second derivatives using D2CorX and points    1    2    3    4
 DE= -1.17D-04 DEPred=-9.55D-05 R= 1.22D+00
 TightC=F SS=  1.41D+00  RLast= 6.61D-02 DXNew= 8.4853D-01 1.9833D-01
 Trust test= 1.22D+00 RLast= 6.61D-02 DXMaxT set to 5.05D-01
 The second derivative matrix:
                          R1        R2        R3        A1        A2
           R1           0.36006
           R2           0.07190   0.36006
           R3           0.05713   0.05713   0.73013
           A1          -0.03446  -0.03446  -0.03587   0.13513
           A2           0.00107   0.00107   0.02018  -0.03228   0.14004
           A3           0.00107   0.00107   0.02018  -0.03228  -0.01996
           D1          -0.03601  -0.03601  -0.02670   0.02330   0.00494
                          A3        D1
           A3           0.14004
           D1           0.00494   0.03526
 ITU=  1  1  1  0
 Use linear search instead of GDIIS.
     Eigenvalues ---    0.02332   0.16000   0.16643   0.28816   0.41627
     Eigenvalues ---    0.75706
 RFO step:  Lambda=-2.78676755D-05 EMin= 2.33248016D-02
 Quartic linear search produced a step of  0.34617.
 Iteration  1 RMS(Cart)=  0.00912456 RMS(Int)=  0.00033137
 Iteration  2 RMS(Cart)=  0.00011857 RMS(Int)=  0.00030941
 Iteration  3 RMS(Cart)=  0.00000001 RMS(Int)=  0.00030941
 ClnCor:  largest displacement from symmetrization is 1.39D-13 for atom     3.
 Variable       Old X    -DE/DX   Delta X   Delta X   Delta X     New X
                                 (Linear)    (Quad)   (Total)
    R1        2.05542  -0.00087   0.00062  -0.00500  -0.00438   2.05104
    R2        2.05542  -0.00087   0.00062  -0.00500  -0.00438   2.05104
    R3        2.47605   0.00078  -0.00258   0.00310   0.00052   2.47658
    A1        2.02730   0.00031   0.00636   0.00545   0.01130   2.03859
    A2        2.02116   0.00008   0.00400   0.00290   0.00649   2.02765
    A3        2.02116   0.00008   0.00400   0.00290   0.00649   2.02765
    D1       -2.46168  -0.00077  -0.02107  -0.01752  -0.03887  -2.50055
         Item               Value     Threshold  Converged?
 Maximum Force            0.000866     0.000450     NO 
 RMS     Force            0.000633     0.000300     NO 
 Maximum Displacement     0.020405     0.001800     NO 
 RMS     Displacement     0.009104     0.001200     NO 
 Predicted change in Energy=-2.006042D-05
 GradGradGradGradGradGradGradGradGradGradGradGradGradGradGradGradGradGrad

                          Input orientation:                          
 ---------------------------------------------------------------------
 Center     Atomic      Atomic             Coordinates (Angstroms)
 Number     Number       Type             X           Y           Z
 ---------------------------------------------------------------------
      1          6           0        0.025724    0.000000   -0.621672
      2          1           0       -0.267368   -0.924445   -1.109020
      3          1           0       -0.267368    0.924445   -1.109020
      4          8           0       -0.011688   -0.000000    0.688343
 ---------------------------------------------------------------------
                    Distance matrix (angstroms):
                    1          2          3          4
     1  C    0.000000
     2  H    1.085362   0.000000
     3  H    1.085362   1.848890   0.000000
     4  O    1.310548   2.037274   2.037274   0.000000
 Stoichiometry    CH2O
 Framework group  CS[SG(CO),X(H2)]
 Deg. of freedom     4
 Full point group                 CS      NOp   2
 Largest Abelian subgroup         CS      NOp   2
 Largest concise Abelian subgroup CS      NOp   2
                         Standard orientation:                         
 ---------------------------------------------------------------------
 Center     Atomic      Atomic             Coordinates (Angstroms)
 Number     Number       Type             X           Y           Z
 ---------------------------------------------------------------------
      1          6           0       -0.038361    0.595426   -0.000000
      2          1           0        0.268525    1.074209    0.924445
      3          1           0        0.268525    1.074209   -0.924445
      4          8           0       -0.038361   -0.715122    0.000000
 ---------------------------------------------------------------------
 Rotational constants (GHZ):         270.9850460          34.1789025          30.8789487
 Standard basis: STO-3G (5D, 7F)
 There are     9 symmetry adapted cartesian basis functions of A'  symmetry.
 There are     3 symmetry adapted cartesian basis functions of A"  symmetry.
 There are     9 symmetry adapted basis functions of A'  symmetry.
 There are     3 symmetry adapted basis functions of A"  symmetry.
    12 basis functions,    36 primitive gaussians,    12 cartesian basis functions
     8 alpha electrons        8 beta electrons
       nuclear repulsion energy        29.6744634632 Hartrees.
 NAtoms=    4 NActive=    4 NUniq=    3 SFac= 1.78D+00 NAtFMM=   60 NAOKFM=F Big=F
 Integral buffers will be    131072 words long.
 Raffenetti 1 integral format.
 Two-electron integral symmetry is turned on.
 One-electron integrals computed using PRISM.
 NBasis=    12 RedAO= T EigKep=  2.54D-01  NBF=     9     3
 NBsUse=    12 1.00D-06 EigRej= -1.00D+00 NBFU=     9     3
 Initial guess from the checkpoint file:  "manual_displacement_CAM-B3LYP.chk"
 B after Tr=     0.000000   -0.000000   -0.000000
         Rot=    0.999997   -0.000000   -0.000000   -0.002597 Ang=  -0.30 deg.
 Initial guess orbital symmetries:
       Occupied  (A') (A') (A') (A') (A") (A') (A') (A")
       Virtual   (A') (A') (A") (A')
 ExpMin= 1.69D-01 ExpMax= 1.31D+02 ExpMxC= 1.31D+02 IAcc=3 IRadAn=         5 AccDes= 0.00D+00
 Harris functional with IExCor=  205 and IRadAn=       5 diagonalized for initial guess.
 HarFok:  IExCor=  205 AccDes= 0.00D+00 IRadAn=         5 IDoV= 1 UseB2=F ITyADJ=14
 ICtDFT=  3500011 ScaDFX=  1.000000  1.000000  1.000000  1.000000
 FoFCou: FMM=F IPFlag=           0 FMFlag=      100000 FMFlg1=           0
         NFxFlg=           0 DoJE=T BraDBF=F KetDBF=T FulRan=T
         wScrn=  0.000000 ICntrl=       500 IOpCl=  0 I1Cent=   200000004 NGrid=           0
         NMat0=    1 NMatS0=      1 NMatT0=    0 NMatD0=    1 NMtDS0=    0 NMtDT0=    0
 Petite list used in FoFCou.
 Keep R1 ints in memory in symmetry-blocked form, NReq=6414882.
 Requested convergence on RMS density matrix=1.00D-08 within 128 cycles.
 Requested convergence on MAX density matrix=1.00D-06.
 Requested convergence on             energy=1.00D-06.
 No special actions if energy rises.
 SCF Done:  E(RHF) =  -112.324522804     A.U. after   10 cycles
            NFock= 10  Conv=0.13D-08     -V/T= 2.0090
 ExpMin= 1.69D-01 ExpMax= 1.31D+02 ExpMxC= 1.31D+02 IAcc=3 IRadAn=         5 AccDes= 0.00D+00
 HarFok:  IExCor=  205 AccDes= 0.00D+00 IRadAn=         5 IDoV=-2 UseB2=F ITyADJ=14
 ICtDFT= 12500011 ScaDFX=  1.000000  1.000000  1.000000  1.000000
 Range of M.O.s used for correlation:     3    12
 NBasis=    12 NAE=     8 NBE=     8 NFC=     2 NFV=     0
 NROrb=     10 NOA=     6 NOB=     6 NVA=     4 NVB=     4
 Keep R1, R2, and R3 ints in memory in symmetry-blocked form, NReq=6417253.
 Orbital symmetries:
       Occupied  (A') (A') (A') (A') (A") (A') (A') (A")
       Virtual   (A') (A') (A") (A')
 Generating guess from densities on rwf.
 Convergence on wavefunction:    0.000001000000000
 Iteration     1 Dimension     6 NMult     0 NNew      6
 CISAX will form     6 AO SS matrices at one time.
 Iteration     2 Dimension    12 NMult     6 NNew      6
 Iteration     3 Dimension    18 NMult    12 NNew      6
 Iteration     4 Dimension    22 NMult    18 NNew      4
 Iteration     5 Dimension    24 NMult    22 NNew      2
 ***********************************************************************
 Excited states from <AA,BB:AA,BB> singles matrix:
 ***********************************************************************
 
 Ground to excited state transition densities written to RWF  633
 Ground to excited state transition electric dipole moments (Au):
       state          X           Y           Z        Dip. S.      Osc.
         1        -0.0000     -0.0000     -0.0676      0.0046      0.0003
         2         0.1466      0.1941      0.0000      0.0592      0.0100
         3        -0.1661      0.9118      0.0000      0.8590      0.1953
 Ground to excited state transition velocity dipole moments (Au):
       state          X           Y           Z        Dip. S.      Osc.
         1         0.0000      0.0000      0.0059      0.0000      0.0002
         2        -0.1257      0.0270     -0.0000      0.0165      0.0433
         3         0.0432     -0.1399     -0.0000      0.0214      0.0419
 Ground to excited state transition magnetic dipole moments (Au):
       state          X           Y           Z
         1         0.1353      1.2077      0.0000
         2        -0.0000      0.0000     -1.8093
         3         0.0000      0.0000      0.4289
 Ground to excited state transition velocity quadrupole moments (Au):
       state          XX          YY          ZZ          XY          XZ          YZ
         1         0.0000      0.0000      0.0000     -0.0000     -0.0194      0.0077
         2        -0.0012      0.0434      0.0110      0.0578     -0.0000     -0.0000
         3        -0.1325     -0.0430     -0.0813     -0.0088     -0.0000     -0.0000
 <0|del|b> * <b|rxdel|0> + <0|del|b> * <b|delr+rdel|0>
 Rotatory Strengths (R) in cgs (10**-40 erg-esu-cm/Gauss)
       state          XX          YY          ZZ    R(velocity)    E-M Angle
         1         0.0000      0.0000      0.0000      0.0000       90.00
         2         0.0000      0.0000     -0.0000      0.0000       90.00
         3        -0.0000     -0.0000      0.0000     -0.0000       90.00
 1/2[<0|r|b>*<b|rxdel|0> + (<0|rxdel|b>*<b|r|0>)*]
 Rotatory Strengths (R) in cgs (10**-40 erg-esu-cm/Gauss)
       state          XX          YY          ZZ     R(length)
         1         0.0000      0.0000      0.0000      0.0000
         2         0.0000     -0.0000      0.0000      0.0000
         3         0.0000     -0.0000     -0.0000     -0.0000
  1/2[<0|del|b>*<b|r|0> + (<0|r|b>*<b|del|0>)*] (Au)
       state          X           Y           Z        Dip. S.   Osc.(frdel)
         1        -0.0000     -0.0000     -0.0004      0.0004      0.0003
         2        -0.0184      0.0052     -0.0000      0.0132      0.0088
         3        -0.0072     -0.1275     -0.0000      0.1347      0.0898

 Excitation energies and oscillator strengths:
 
 Excited State   1:      Singlet-A"     2.8702 eV  431.96 nm  f=0.0003  <S**2>=0.000
       5 ->  9         0.13162
       8 ->  9         0.69755
 This state for optimization and/or second-order correction.
 Total Energy, E(TD-HF/TD-DFT) =  -112.219043422    
 Copying the excited state density for this state as the 1-particle RhoCI density.
 
 Excited State   2:      Singlet-A'     6.9190 eV  179.19 nm  f=0.0100  <S**2>=0.000
       6 ->  9         0.66848
       7 ->  9         0.22826
 
 Excited State   3:      Singlet-A'     9.2782 eV  133.63 nm  f=0.1953  <S**2>=0.000
       6 ->  9        -0.23373
       6 -> 12        -0.18713
       7 ->  9         0.64260
 SavETr:  write IOETrn=   770 NScale= 10 NData=  16 NLR=1 NState=    3 LETran=      64.
          IDoAtm=1111
          Differentiating once with respect to electric field.
                with respect to dipole field.
          Differentiating once with respect to nuclear coordinates.
 Keep R1 ints in memory in symmetry-blocked form, NReq=6415512.
          There are     1 degrees of freedom in the 1st order CPHF.  IDoFFX=0 NUNeed=     1.
 LinEq1:  Iter=  0 NonCon=     1 RMS=1.18D-01 Max=5.40D-01 NDo=     1
 AX will form     1 AO Fock derivatives at one time.
 LinEq1:  Iter=  1 NonCon=     1 RMS=1.94D-02 Max=6.21D-02 NDo=     1
 LinEq1:  Iter=  2 NonCon=     1 RMS=2.87D-03 Max=8.95D-03 NDo=     1
 LinEq1:  Iter=  3 NonCon=     1 RMS=3.04D-04 Max=7.87D-04 NDo=     1
 LinEq1:  Iter=  4 NonCon=     1 RMS=3.16D-05 Max=1.08D-04 NDo=     1
 LinEq1:  Iter=  5 NonCon=     1 RMS=6.82D-06 Max=2.71D-05 NDo=     1
 LinEq1:  Iter=  6 NonCon=     1 RMS=6.73D-07 Max=2.18D-06 NDo=     1
 LinEq1:  Iter=  7 NonCon=     1 RMS=6.68D-08 Max=1.96D-07 NDo=     1
 LinEq1:  Iter=  8 NonCon=     1 RMS=4.20D-09 Max=1.24D-08 NDo=     1
 LinEq1:  Iter=  9 NonCon=     1 RMS=4.49D-10 Max=1.15D-09 NDo=     1
 LinEq1:  Iter= 10 NonCon=     0 RMS=2.32D-11 Max=7.55D-11 NDo=     1
 Linear equations converged to 1.000D-10 1.000D-09 after    10 iterations.
 End of Minotr F.D. properties file   721 does not exist.
 End of Minotr F.D. properties file   722 does not exist.
 End of Minotr F.D. properties file   788 does not exist.
 Calling FoFJK, ICntrl=  10005127 FMM=F ISym2X=1 I1Cent= 0 IOpClX= 0 NMat=1 NMatS=1 NMatT=0.
 ***** Axes restored to original set *****
 -------------------------------------------------------------------
 Center     Atomic                   Forces (Hartrees/Bohr)
 Number     Number              X              Y              Z
 -------------------------------------------------------------------
      1        6           0.000191254    0.000000000    0.000769217
      2        1          -0.000085437   -0.000445421   -0.000054364
      3        1          -0.000085437    0.000445421   -0.000054364
      4        8          -0.000020380   -0.000000000   -0.000660490
 -------------------------------------------------------------------
 Cartesian Forces:  Max     0.000769217 RMS     0.000351455

 GradGradGradGradGradGradGradGradGradGradGradGradGradGradGradGradGradGrad
 Berny optimization.
 Using GEDIIS/GDIIS optimizer.
 FormGI is forming the generalized inverse of G from B-inverse, IUseBI=4.
 Internal  Forces:  Max     0.000659639 RMS     0.000355574
 Search for a local minimum.
 Step number   5 out of a maximum of   20
 All quantities printed in internal units (Hartrees-Bohrs-Radians)
 Mixed Optimization -- En-DIIS/RFO-DIIS
 Swapping is turned off.
 Update second derivatives using D2CorX and points    1    2    3    4    5
 DE= -1.89D-05 DEPred=-2.01D-05 R= 9.42D-01
 TightC=F SS=  1.41D+00  RLast= 4.20D-02 DXNew= 8.4853D-01 1.2590D-01
 Trust test= 9.42D-01 RLast= 4.20D-02 DXMaxT set to 5.05D-01
 The second derivative matrix:
                          R1        R2        R3        A1        A2
           R1           0.35123
           R2           0.06307   0.35123
           R3           0.02648   0.02648   0.76988
           A1          -0.01163  -0.01163  -0.01284   0.12292
           A2           0.00573   0.00573   0.04089  -0.03456   0.14324
           A3           0.00573   0.00573   0.04089  -0.03456  -0.01676
           D1          -0.01452  -0.01452  -0.02258   0.02430   0.00460
                          A3        D1
           A3           0.14324
           D1           0.00460   0.03168
 ITU=  1  1  1  1  0
     Eigenvalues ---    0.02017   0.16000   0.16895   0.28816   0.41193
     Eigenvalues ---    0.77958
 En-DIIS/RFO-DIIS/Sim-DIIS IScMMF=       -3 using points:     5    4
 RFO step:  Lambda=-2.00981605D-06.
 DidBck=F Rises=F RFO-DIIS coefs:    1.01070   -0.01070
 Iteration  1 RMS(Cart)=  0.00103944 RMS(Int)=  0.00000183
 Iteration  2 RMS(Cart)=  0.00000037 RMS(Int)=  0.00000176
 ClnCor:  largest displacement from symmetrization is 3.69D-14 for atom     3.
 Variable       Old X    -DE/DX   Delta X   Delta X   Delta X     New X
                                 (Linear)    (Quad)   (Total)
    R1        2.05104   0.00043  -0.00005   0.00117   0.00112   2.05216
    R2        2.05104   0.00043  -0.00005   0.00117   0.00112   2.05216
    R3        2.47658  -0.00066   0.00001  -0.00086  -0.00086   2.47572
    A1        2.03859   0.00022   0.00012   0.00128   0.00140   2.03999
    A2        2.02765  -0.00014   0.00007  -0.00075  -0.00068   2.02697
    A3        2.02765  -0.00014   0.00007  -0.00075  -0.00068   2.02697
    D1       -2.50055   0.00001  -0.00042  -0.00015  -0.00057  -2.50112
         Item               Value     Threshold  Converged?
 Maximum Force            0.000660     0.000450     NO 
 RMS     Force            0.000356     0.000300     NO 
 Maximum Displacement     0.001710     0.001800     YES
 RMS     Displacement     0.001040     0.001200     YES
 Predicted change in Energy=-1.004914D-06
 GradGradGradGradGradGradGradGradGradGradGradGradGradGradGradGradGradGrad

                          Input orientation:                          
 ---------------------------------------------------------------------
 Center     Atomic      Atomic             Coordinates (Angstroms)
 Number     Number       Type             X           Y           Z
 ---------------------------------------------------------------------
      1          6           0        0.025738    0.000000   -0.621746
      2          1           0       -0.267329   -0.925350   -1.108717
      3          1           0       -0.267329    0.925350   -1.108717
      4          8           0       -0.011779   -0.000000    0.687812
 ---------------------------------------------------------------------
                    Distance matrix (angstroms):
                    1          2          3          4
     1  C    0.000000
     2  H    1.085956   0.000000
     3  H    1.085956   1.850699   0.000000
     4  O    1.310096   2.036933   2.036933   0.000000
 Stoichiometry    CH2O
[...]
      5 vectors produced by pass  4 Test12= 3.20D-16 6.67D-09 XBig12= 2.91D-10 7.73D-06.
      2 vectors produced by pass  5 Test12= 3.20D-16 6.67D-09 XBig12= 1.44D-14 7.59D-08.
 InvSVY:  IOpt=1 It=  1 EMax= 8.88D-16
 Solved reduced A of dimension    47 with    12 vectors.
 SavDET:  read IOETrn=   770 NScale= 10 NData=  16 NLR=1 NState=    3 NDeriv=    0 LETran=      64.
 SavDET: write IOETrn=   770 NScale= 10 NData=  16 NLR=1 NState=    3 NDeriv=   15 LETran=     304.
 TDDxLx will form    15 C1x/S1x matrices at one time.
 Interchange theorem applied.

 **********************************************************************

            Population analysis using the SCF Density.

 **********************************************************************

 Orbital symmetries:
       Occupied  (A') (A') (A') (A') (A") (A') (A') (A")
       Virtual   (A') (A') (A") (A')
 The electronic state is 1-A'.
 Alpha  occ. eigenvalues --  -20.30085 -11.10115  -1.28215  -0.81420  -0.61634
 Alpha  occ. eigenvalues --   -0.51766  -0.39392  -0.36140
 Alpha virt. eigenvalues --    0.23251   0.66232   0.74455   0.77481
          Condensed to atoms (all electrons):
               1          2          3          4
     1  C    4.833502   0.377014   0.377014   0.394087
     2  H    0.377014   0.607513  -0.031959  -0.020968
     3  H    0.377014  -0.031959   0.607513  -0.020968
     4  O    0.394087  -0.020968  -0.020968   7.803030
 Mulliken charges:
               1
     1  C    0.018382
     2  H    0.068399
     3  H    0.068399
     4  O   -0.155181
 Sum of Mulliken charges =  -0.00000
 Mulliken charges with hydrogens summed into heavy atoms:
               1
     1  C    0.155181
     4  O   -0.155181
 APT charges:
               1
     1  C   -0.315295
     2  H    0.107534
     3  H    0.107534
     4  O    0.100227
 Sum of APT charges =  -0.00000
 APT charges with hydrogens summed into heavy atoms:
               1
     1  C   -0.100227
     4  O    0.100227
 Electronic spatial extent (au):  <R**2>=             61.0199
 Charge=              0.0000 electrons
 Dipole moment (field-independent basis, Debye):
    X=              0.3042    Y=              1.4744    Z=             -0.0000  Tot=              1.5054
 Quadrupole moment (field-independent basis, Debye-Ang):
   XX=            -10.3657   YY=            -11.2745   ZZ=            -10.4961
   XY=              0.1681   XZ=             -0.0000   YZ=             -0.0000
 Traceless Quadrupole moment (field-independent basis, Debye-Ang):
   XX=              0.3464   YY=             -0.5624   ZZ=              0.2160
   XY=              0.1681   XZ=             -0.0000   YZ=             -0.0000
 Octapole moment (field-independent basis, Debye-Ang**2):
  XXX=             -0.1819  YYY=             -3.1482  ZZZ=             -0.0000  XYY=              0.3773
  XXY=             -1.6076  XXZ=             -0.0000  XZZ=              0.3200  YZZ=             -0.4904
  YYZ=             -0.0000  XYZ=             -0.0000
 Hexadecapole moment (field-independent basis, Debye-Ang**3):
 XXXX=             -7.6409 YYYY=            -42.1827 ZZZZ=            -14.3569 XXXY=             -1.3401
 XXXZ=             -0.0000 YYYX=             -1.1191 YYYZ=             -0.0000 ZZZX=             -0.0000
 ZZZY=             -0.0000 XXYY=             -7.9776 XXZZ=             -3.7668 YYZZ=             -8.7632
 XXYZ=              0.0000 YYXZ=             -0.0000 ZZXY=             -0.0204
 N-N= 2.967836968956D+01 E-N=-3.245485656404D+02  KE= 1.113178697807D+02
 Symmetry A'   KE= 1.044006744417D+02
 Symmetry A"   KE= 6.917195338962D+00
  Exact polarizability:       2.370       0.415      11.507      -0.000      -0.000       6.487
 Approx polarizability:       2.437      -0.475      15.253       0.000      -0.000       4.614
 Density matrix is not symmetric, so symmetry will not be used here.
 Calling FoFJK, ICntrl=  10105127 FMM=F ISym2X=1 I1Cent= 0 IOpClX= 0 NMat=1 NMatS=1 NMatT=0.
 Density matrix is not symmetric, so symmetry will not be used here.
 Calling FoFJK, ICntrl=  10002127 FMM=F ISym2X=0 I1Cent= 0 IOpClX= 0 NMat=1 NMatS=1 NMatT=0.
 Full mass-weighted force constant matrix:
 Low frequencies ---   -7.5859   -0.0014   -0.0012   -0.0008    8.6724   35.3161
 Low frequencies ---  632.9777 1121.0543 1575.0485
 Diagonal vibrational polarizability:
        4.5288638       1.6990868       0.2467227
 Harmonic frequencies (cm**-1), IR intensities (KM/Mole), Raman scattering
 activities (A**4/AMU), depolarization ratios for plane and unpolarized
 incident light, reduced masses (AMU), force constants (mDyne/A),
 and normal coordinates:
                      1                      2                      3
                     A'                     A"                     A'
 Frequencies --    632.9776              1121.0542              1575.0485
 Red. masses --      1.3192                 1.2570                 1.2867
 Frc consts  --      0.3114                 0.9308                 1.8807
 IR Inten    --     86.8444                11.4304                 3.2319
  Atom  AN      X      Y      Z        X      Y      Z        X      Y      Z
     1   6    -0.16   0.04   0.00     0.00  -0.00   0.13    -0.01   0.06   0.00
     2   1     0.65  -0.22  -0.09    -0.07   0.66  -0.21     0.14   0.61  -0.32
     3   1     0.65  -0.22   0.09     0.07  -0.66  -0.21     0.14   0.61   0.32
     4   8     0.04   0.00  -0.00     0.00   0.00  -0.07    -0.01  -0.12  -0.00
                      4                      5                      6
                     A'                     A'                     A"
 Frequencies --   1759.9668              3563.0071              3719.3131
 Red. masses --      3.7025                 1.0526                 1.1133
 Frc consts  --      6.7570                 7.8733                 9.0739
 IR Inten    --     33.9123                30.7458                 1.0083
  Atom  AN      X      Y      Z        X      Y      Z        X      Y      Z
     1   6     0.02   0.40  -0.00    -0.03  -0.06   0.00    -0.00  -0.00  -0.10
     2   1    -0.16  -0.37   0.48     0.17   0.31   0.61     0.20   0.32   0.59
     3   1    -0.16  -0.37  -0.48     0.17   0.31  -0.61    -0.20  -0.32   0.59
     4   8     0.00  -0.25   0.00    -0.00   0.00  -0.00    -0.00  -0.00  -0.00

 -------------------
 - Thermochemistry -
 -------------------
 Temperature   298.150 Kelvin.  Pressure   1.00000 Atm.
 Atom     1 has atomic number  6 and mass  12.00000
 Atom     2 has atomic number  1 and mass   1.00783
 Atom     3 has atomic number  1 and mass   1.00783
 Atom     4 has atomic number  8 and mass  15.99491
 Molecular mass:    30.01056 amu.
 Principal axes and moments of inertia in atomic units:
                           1         2         3
     Eigenvalues --     6.67203  52.76286  58.41774
           X            0.04892   0.00000   0.99880
           Y            0.99880   0.00000  -0.04892
           Z           -0.00000   1.00000  -0.00000
 This molecule is an asymmetric top.
 Rotational symmetry number  1.
 Rotational temperatures (Kelvin)     12.98164     1.64157     1.48266
 Rotational constants (GHZ):         270.49341    34.20477    30.89372
 Zero-point vibrational energy      73997.2 (Joules/Mol)
                                   17.68576 (Kcal/Mol)
 Vibrational temperatures:    910.71  1612.95  2266.14  2532.20  5126.37
          (Kelvin)           5351.26
 
 Zero-point correction=                           0.028184 (Hartree/Particle)
 Thermal correction to Energy=                    0.031187
 Thermal correction to Enthalpy=                  0.032132
 Thermal correction to Gibbs Free Energy=         0.006348
 Sum of electronic and zero-point Energies=           -112.190860
 Sum of electronic and thermal Energies=              -112.187857
 Sum of electronic and thermal Enthalpies=            -112.186913
 Sum of electronic and thermal Free Energies=         -112.212697
 
                     E (Thermal)             CV                S
                      KCal/Mol        Cal/Mol-Kelvin    Cal/Mol-Kelvin
 Total                   19.570              7.274             54.267
 Electronic               0.000              0.000              0.000
 Translational            0.889              2.981             36.130
 Rotational               0.889              2.981             17.671
 Vibrational             17.793              1.312              0.466
                       Q            Log10(Q)             Ln(Q)
 Total Bot       0.120296D-02         -2.919749         -6.722970
 Total V=0       0.110663D+11         10.044002         23.127169
 Vib (Bot)       0.114677D-12        -12.940525        -29.796660
 Vib (V=0)       0.105493D+01          0.023226          0.053479
 Electronic      0.100000D+01          0.000000          0.000000
 Translational   0.646197D+07          6.810365         15.681445
 Rotational      0.162335D+04          3.210411          7.392245
 ***** Axes restored to original set *****
 -------------------------------------------------------------------
 Center     Atomic                   Forces (Hartrees/Bohr)
 Number     Number              X              Y              Z
 -------------------------------------------------------------------
      1        6          -0.000018007    0.000000000   -0.000152946
      2        1           0.000013391    0.000086274    0.000036779
      3        1           0.000013391   -0.000086274    0.000036779
      4        8          -0.000008776    0.000000000    0.000079389
 -------------------------------------------------------------------
 Cartesian Forces:  Max     0.000152946 RMS     0.000063276
 -------------------------------------------------------------------
 Center     Atomic                Nonadiabatic Coup. (Bohr^-1)
 Number     Number              X              Y              Z
 -------------------------------------------------------------------
      1        6          -0.000000000    0.140083411   -0.000000000
      2        1           0.327814216   -0.056269408   -0.041167413
      3        1          -0.327814216   -0.056269408    0.041167413
      4        8           0.000000000   -0.021611946   -0.000000000
 -------------------------------------------------------------------
 Cartesian Nonad. Coup.:  Max     0.327814216 RMS     0.142810120
 FormGI is forming the generalized inverse of G from B-inverse, IUseBI=4.

 GradGradGradGradGradGradGradGradGradGradGradGradGradGradGradGradGradGrad
 Berny optimization.
 Internal  Forces:  Max     0.000093621 RMS     0.000058980
 Search for a local minimum.
 Step number   1 out of a maximum of    2
 All quantities printed in internal units (Hartrees-Bohrs-Radians)
 Second derivative matrix not updated -- analytic derivatives used.
 The second derivative matrix:
                          R1        R2        R3        A1        A2
           R1           0.46865
           R2          -0.00484   0.46865
           R3           0.01336   0.01336   0.80399
           A1           0.00368   0.00368  -0.03797   0.08328
           A2           0.01752  -0.01118   0.03325  -0.05313   0.11433
           A3          -0.01118   0.01752   0.03325  -0.05313  -0.04205
           D1          -0.01619  -0.01619  -0.02809   0.00297  -0.00856
                          A3        D1
           A3           0.11433
           D1          -0.00856   0.01981
 ITU=  0
     Eigenvalues ---    0.01938   0.14814   0.15381   0.46394   0.47606
     Eigenvalues ---    0.81172
 Angle between quadratic step and forces=  63.51 degrees.
 Linear search not attempted -- first point.
 Iteration  1 RMS(Cart)=  0.00021996 RMS(Int)=  0.00000007
 Iteration  2 RMS(Cart)=  0.00000004 RMS(Int)=  0.00000006
 Variable       Old X    -DE/DX   Delta X   Delta X   Delta X     New X
                                 (Linear)    (Quad)   (Total)
    R1        2.05216  -0.00009   0.00000  -0.00018  -0.00018   2.05198
    R2        2.05216  -0.00009   0.00000  -0.00018  -0.00018   2.05198
    R3        2.47572   0.00008   0.00000   0.00013   0.00013   2.47585
    A1        2.03999  -0.00001   0.00000  -0.00024  -0.00024   2.03976
    A2        2.02697   0.00000   0.00000  -0.00011  -0.00011   2.02686
    A3        2.02697   0.00000   0.00000  -0.00011  -0.00011   2.02686
    D1       -2.50112   0.00002   0.00000   0.00076   0.00076  -2.50037
         Item               Value     Threshold  Converged?
 Maximum Force            0.000094     0.000450     YES
 RMS     Force            0.000059     0.000300     YES
 Maximum Displacement     0.000357     0.001800     YES
 RMS     Displacement     0.000220     0.001200     YES
 Predicted change in Energy=-2.978512D-08
 Optimization completed.
    -- Stationary point found.
                           ----------------------------
                           !   Optimized Parameters   !
                           ! (Angstroms and Degrees)  !
 --------------------------                            --------------------------
 ! Name  Definition              Value          Derivative Info.                !
 --------------------------------------------------------------------------------
 ! R1    R(1,2)                  1.086          -DE/DX =   -0.0001              !
 ! R2    R(1,3)                  1.086          -DE/DX =   -0.0001              !
 ! R3    R(1,4)                  1.3101         -DE/DX =    0.0001              !
 ! A1    A(2,1,3)              116.8829         -DE/DX =    0.0                 !
 ! A2    A(2,1,4)              116.1367         -DE/DX =    0.0                 !
 ! A3    A(3,1,4)              116.1367         -DE/DX =    0.0                 !
 ! D1    D(2,1,4,3)           -143.3038         -DE/DX =    0.0                 !
 --------------------------------------------------------------------------------
 GradGradGradGradGradGradGradGradGradGradGradGradGradGradGradGradGradGrad

 -------------------------------------------------------------------
 Center     Atomic                Nonadiabatic Coup. (Bohr^-1)
 Number     Number              X              Y              Z
 -------------------------------------------------------------------
      1        6          -0.000000000    0.140083411   -0.000000000
      2        1           0.327814216   -0.056269408   -0.041167413
      3        1          -0.327814216   -0.056269408    0.041167413
      4        8           0.000000000   -0.021611946   -0.000000000
 -------------------------------------------------------------------
 Cartesian Nonad. Coup.:  Max     0.327814216 RMS     0.142810120

 ----------------------------------------------------------------------

 Electric dipole moment (input orientation):
 (Debye = 10**-18 statcoulomb cm , SI units = C m)
                  (au)            (Debye)         (10**-30 SI)
   Tot        0.257497D+00      0.654492D+00      0.218315D+01
   x         -0.242491D+00     -0.616350D+00     -0.205592D+01
   y          0.000000D+00      0.000000D+00      0.000000D+00
   z         -0.866193D-01     -0.220164D+00     -0.734389D+00

 Dipole polarizability, Alpha (input orientation).
 (esu units = cm**3 , SI units = C**2 m**2 J**-1)
 Alpha(0;0):
               (au)            (10**-24 esu)      (10**-40 SI)
   iso        0.678797D+01      0.100587D+01      0.111918D+01
   aniso      0.795875D+01      0.117936D+01      0.131222D+01
   xx         0.235327D+01      0.348719D+00      0.388002D+00
   yx         0.000000D+00      0.000000D+00      0.000000D+00
   yy         0.648722D+01      0.961307D+00      0.106960D+01
   zx         0.152374D+00      0.225796D-01      0.251231D-01
   zy         0.000000D+00      0.000000D+00      0.000000D+00
   zz         0.115234D+02      0.170759D+01      0.189995D+01

 ----------------------------------------------------------------------

 Dipole orientation:
     6          1.12281993         -0.00000000          0.34943164
     1          1.80313472          1.74865717          1.18053284
     1          1.80313472         -1.74865717          1.18053284
     8         -1.23151756          0.00000000         -0.41626880

 Electric dipole moment (dipole orientation):
 (Debye = 10**-18 statcoulomb cm , SI units = C m)
                  (au)            (Debye)         (10**-30 SI)
   Tot        0.257497D+00      0.654492D+00      0.218315D+01
   x          0.000000D+00      0.000000D+00      0.000000D+00
   y          0.000000D+00      0.000000D+00      0.000000D+00
   z          0.257497D+00      0.654492D+00      0.218315D+01

 Dipole polarizability, Alpha (dipole orientation).
 (esu units = cm**3 , SI units = C**2 m**2 J**-1)
 Alpha(0;0):
               (au)            (10**-24 esu)      (10**-40 SI)
   iso        0.678797D+01      0.100587D+01      0.111918D+01
   aniso      0.795875D+01      0.117936D+01      0.131222D+01
   xx         0.103892D+02      0.153952D+01      0.171295D+01
   yx         0.000000D+00      0.000000D+00      0.000000D+00
   yy         0.648722D+01      0.961307D+00      0.106960D+01
   zx         0.302286D+01      0.447941D+00      0.498402D+00
   zy         0.000000D+00      0.000000D+00      0.000000D+00
   zz         0.348749D+01      0.516792D+00      0.575009D+00

 ----------------------------------------------------------------------
 Unable to Open any file for archive entry.
 1\1\GINC-CX3-2-1\Freq\RTD-FC\STO-3G\C1H2O1\RK820\23-Feb-2024\0\\#N Geo
 m=AllCheck Guess=TCheck SCRF=Check GenChk RTD(FC,Read)/STO-3G Freq\\Re
 -optimization and frequency calculation for first excited state comput
 ed by TD/CAM-B3LYP\\0,1\C,0.0257377371,0.,-0.6217463984\H,-0.267329138
 8,-0.9253495224,-1.1087174297\H,-0.2673291388,0.9253495224,-1.10871742
 97\O,-0.0117794594,0.,0.6878122577\\Version=ES64L-G16RevC.01\State=1-A
 '\HF=-112.3246424\RMSD=0.000e+00\RMSF=6.328e-05\ZeroPoint=0.028184\The
 rmal=0.0311875\ETot=-112.1878568\HTot=-112.1869126\GTot=-112.2126965\D
 ipole=-0.2424906,0.,-0.0866193\DipoleDeriv=-0.4320378,0.,0.0873972,0.,
 0.0918776,0.,0.0909364,0.,-0.6057238,0.1669896,-0.0665544,-0.0414993,-
 0.0189673,0.0168175,0.0583782,-0.0160447,0.0728959,0.1387942,0.1669896
 ,0.0665544,-0.0414993,0.0189673,0.0168175,-0.0583782,-0.0160447,-0.072
 8959,0.1387942,0.0980585,0.,-0.0043985,0.,-0.1255125,0.,-0.0588471,0.,
 0.3281355\Polar=2.3532736,0.,6.4872209,0.1523744,0.,11.5234064\PG=CS [
 SG(C1O1),X(H2)]\NImag=0\\0.08706556,0.,0.73793586,0.10190745,0.,0.9895
 4407,-0.03956905,-0.10972333,-0.06546507,0.03652818,-0.07973461,-0.343
 16049,-0.14049681,0.09444833,0.35592132,-0.04745123,-0.14402384,-0.126
 49340,0.05711556,0.15765574,0.14826097,-0.03956905,0.10972333,-0.06546
 507,0.00223460,-0.01344217,0.00293134,0.03652818,0.07973461,-0.3431604
 9,0.14049681,0.01344217,-0.01559967,0.01740210,-0.09444833,0.35592132,
 -0.04745123,0.14402384,-0.12649340,0.00293134,-0.01740210,0.01216689,0
 .05711556,-0.15765574,0.14826097,-0.00792745,0.,0.02902268,0.00080627,
 -0.00127155,-0.01259567,0.00080627,0.00127155,-0.01259567,0.00631491,0
 .,-0.05161488,0.,0.00183283,0.00283884,-0.03103400,-0.00183283,0.00283
 884,0.03103400,0.,0.04593719,-0.00700499,0.,-0.73655726,0.00541816,0.0
 0024318,-0.03393445,0.00541816,-0.00024318,-0.03393445,-0.00383133,0.,
 0.80442617\\0.00001801,0.,0.00015295,-0.00001339,-0.00008627,-0.000036
 78,-0.00001339,0.00008627,-0.00003678,0.00000878,0.,-0.00007939\\\@
 The archive entry for this job was punched.


 O WAD SOME POWER THE GIFTIE GIE US       
 TO SEE OURSELS AS OTHERS SEE US.....     
 IT WOULD FRAE MONIE A BLUNDER FREE US,   
                     AND FOOLISH NOTION...
 WHAT AIRS IN DRESS AND GAIT WAD LEA'E US,
                     AND EV'N DEVOTION....
                                          
              (ROBERT BURNS 'TO A LOUSE') 
 Job cpu time:       0 days  0 hours  0 minutes 55.2 seconds.
 Elapsed time:       0 days  0 hours  0 minutes  2.1 seconds.
 File lengths (MBytes):  RWF=      6 Int=      0 D2E=      0 Chk=      1 Scr=      1
 Normal termination of Gaussian 16 at Fri Feb 23 12:58:31 2024.
