 Entering Gaussian System, Link 0=g16
 Input=Perylene_fc.gjf
 Output=Perylene_fc.log
 Initial command:
 /apps/gaussian/g16-c01-avx2/g16/l1.exe "/var/tmp/pbs.9107084.pbs/Gau-3291710.inp" -scrdir="/var/tmp/pbs.9107084.pbs/"
 Entering Link 1 = /apps/gaussian/g16-c01-avx2/g16/l1.exe PID=   3291711.
  
 Copyright (c) 1988-2019, Gaussian, Inc.  All Rights Reserved.
  
 This is part of the Gaussian(R) 16 program.  It is based on
 the Gaussian(R) 09 system (copyright 2009, Gaussian, Inc.),
 the Gaussian(R) 03 system (copyright 2003, Gaussian, Inc.),
 the Gaussian(R) 98 system (copyright 1998, Gaussian, Inc.),
 the Gaussian(R) 94 system (copyright 1995, Gaussian, Inc.),
 the Gaussian 92(TM) system (copyright 1992, Gaussian, Inc.),
 the Gaussian 90(TM) system (copyright 1990, Gaussian, Inc.),
 the Gaussian 88(TM) system (copyright 1988, Gaussian, Inc.),
 the Gaussian 86(TM) system (copyright 1986, Carnegie Mellon
 University), and the Gaussian 82(TM) system (copyright 1983,
 Carnegie Mellon University). Gaussian is a federally registered
 trademark of Gaussian, Inc.
  
 This software contains proprietary and confidential information,
 including trade secrets, belonging to Gaussian, Inc.
  
 This software is provided under written license and may be
 used, copied, transmitted, or stored only in accord with that
 written license.
  
 The following legend is applicable only to US Government
 contracts under FAR:
  
                    RESTRICTED RIGHTS LEGEND
  
 Use, reproduction and disclosure by the US Government is
 subject to restrictions as set forth in subparagraphs (a)
 and (c) of the Commercial Computer Software - Restricted
 Rights clause in FAR 52.227-19.
  
 Gaussian, Inc.
 340 Quinnipiac St., Bldg. 40, Wallingford CT 06492
  
  
 ---------------------------------------------------------------
 Warning -- This program may not be used in any manner that
 competes with the business of Gaussian, Inc. or will provide
 assistance to any competitor of Gaussian, Inc.  The licensee
 of this program is prohibited from giving any competitor of
 Gaussian, Inc. access to this program.  By using this program,
 the user acknowledges that Gaussian, Inc. is engaged in the
 business of creating and licensing software in the field of
 computational chemistry and represents and warrants to the
 licensee that it is not a competitor of Gaussian, Inc. and that
 it will not use this program in any manner prohibited above.
 ---------------------------------------------------------------
  

 Cite this work as:
 Gaussian 16, Revision C.01,
 M. J. Frisch, G. W. Trucks, H. B. Schlegel, G. E. Scuseria, 
 M. A. Robb, J. R. Cheeseman, G. Scalmani, V. Barone, 
 G. A. Petersson, H. Nakatsuji, X. Li, M. Caricato, A. V. Marenich, 
 J. Bloino, B. G. Janesko, R. Gomperts, B. Mennucci, H. P. Hratchian, 
 J. V. Ortiz, A. F. Izmaylov, J. L. Sonnenberg, D. Williams-Young, 
 F. Ding, F. Lipparini, F. Egidi, J. Goings, B. Peng, A. Petrone, 
 T. Henderson, D. Ranasinghe, V. G. Zakrzewski, J. Gao, N. Rega, 
 G. Zheng, W. Liang, M. Hada, M. Ehara, K. Toyota, R. Fukuda, 
 J. Hasegawa, M. Ishida, T. Nakajima, Y. Honda, O. Kitao, H. Nakai, 
 T. Vreven, K. Throssell, J. A. Montgomery, Jr., J. E. Peralta, 
 F. Ogliaro, M. J. Bearpark, J. J. Heyd, E. N. Brothers, K. N. Kudin, 
 V. N. Staroverov, T. A. Keith, R. Kobayashi, J. Normand, 
 K. Raghavachari, A. P. Rendell, J. C. Burant, S. S. Iyengar, 
 J. Tomasi, M. Cossi, J. M. Millam, M. Klene, C. Adamo, R. Cammi, 
 J. W. Ochterski, R. L. Martin, K. Morokuma, O. Farkas, 
 J. B. Foresman, and D. J. Fox, Gaussian, Inc., Wallingford CT, 2019.
 
 ******************************************
 Gaussian 16:  ES64L-G16RevC.01  3-Jul-2019
                13-Mar-2024 
 ******************************************
 %chk=/rds/general/user/rk820/home/dibs-g16/fc_ht/project/Perylene1-1.chk
 %NProcShared=128
 Will use up to  128 processors via shared memory.
 %Mem=900GB
 ----------------------------------------------------------------------
 #p B3LYP/Def2TZVPP Freq(ReadFC, FC, ReadFCHT) NoSymm geom=check guess=
 read
 ----------------------------------------------------------------------
 1/29=2,38=1,172=1/1;
 2/12=2,15=1,40=1/2;
 7/8=1,25=11,30=1,71=10,121=1/16,18;
 99/5=5/99;
 Leave Link    1 at Wed Mar 13 11:57:55 2024, MaxMem=120795955200 cpu:              15.3 elap:               0.1
 (Enter /apps/gaussian/g16-c01-avx2/g16/l101.exe)
 ----------------------------------------------------------------------
 FC analysis for perylene, investigating the S1 PES and simulating the 
 absorption spectrum.
 ----------------------------------------------------------------------
 Structure from the checkpoint file:  "/rds/general/user/rk820/home/dibs-g16/fc_ht/project/Perylene1-1.chk"
 Charge =  0 Multiplicity = 1
 Redundant internal coordinates found in file.  (old form).
 C,0,-1.2350412321,-3.3795898284,-0.0004765865
 C,0,0.1662928208,-3.3585217151,-0.0002867703
 C,0,0.8827559191,-2.1722239246,0.0000160822
 C,0,0.1614226301,-0.9398475994,0.0002203161
 C,0,-1.2687607104,-0.9659676996,-0.0000167254
 C,0,-1.9440623819,-2.2074704735,-0.000369668
 C,0,2.3552206175,-2.1455980373,0.0001258932
 C,0,0.8375089968,0.3181183477,0.0006643316
 C,0,2.3101627695,0.3448078813,0.0010339433
 C,0,3.0314362193,-0.8877462127,0.0006994703
 C,0,3.0270714667,1.5308956769,0.0016845498
 C,0,0.078035754,1.477366477,0.0007463574
 C,0,-1.3232264255,1.4472475449,0.0004660614
 C,0,-1.9889574069,0.2501608943,0.0001107478
 H,0,-3.0709333441,0.2173130779,-0.0000834565
 H,0,-1.8736586568,2.3788728114,0.0005429948
 H,0,-1.7512784281,-4.3305812382,-0.0007163732
 H,0,-3.0265200641,-2.2142277404,-0.0005397554
 C,0,3.1142970453,-3.3050071256,-0.0003042452
 C,0,4.5155613144,-3.275176087,-0.0001105281
 C,0,5.1815291626,-2.0781965938,0.0005227504
 C,0,4.4615357003,-0.8619414142,0.0009359997
 H,0,5.0657420956,-4.2069425462,-0.00045705
 H,0,6.2635137788,-2.0455320128,0.0007012409
 C,0,4.4284741344,1.5516426345,0.0019603809
 H,0,4.9447973203,2.5025911726,0.0024693688
 C,0,5.1371676835,0.3794413184,0.0015748341
 H,0,6.2196284875,0.3858130499,0.0017605108
 H,0,0.6844965186,-4.3055516047,-0.0003740236
 H,0,2.6308647242,-4.2702548715,-0.0008153586
 H,0,0.5611341481,2.4427124002,0.0010271904
 H,0,2.5092017126,2.4780399682,0.0020025671
 Recover connectivity data from disk.
 ITRead=  0  0  0  0  0  0  0  0  0  0  0  0  0  0  0  0  0  0  0  0
 ITRead=  0  0  0  0  0  0  0  0  0  0  0  0
 MicOpt= -1 -1 -1 -1 -1 -1 -1 -1 -1 -1 -1 -1 -1 -1 -1 -1 -1 -1 -1 -1
 MicOpt= -1 -1 -1 -1 -1 -1 -1 -1 -1 -1 -1 -1
                           ----------------------------
                           !    Current Parameters    !
                           ! (Angstroms and Degrees)  !
 --------------------------                            --------------------------
 ! Name  Definition              Value          Derivative Info.                !
 --------------------------------------------------------------------------------
 ! R1    R(1,2)                  1.4015         estimate D2E/DX2                !
 ! R2    R(1,6)                  1.3699         estimate D2E/DX2                !
 ! R3    R(1,17)                 1.0821         estimate D2E/DX2                !
 ! R4    R(2,3)                  1.3859         estimate D2E/DX2                !
 ! R5    R(2,29)                 1.0795         estimate D2E/DX2                !
 ! R6    R(3,4)                  1.428          estimate D2E/DX2                !
 ! R7    R(3,7)                  1.4727         estimate D2E/DX2                !
 ! R8    R(4,5)                  1.4304         estimate D2E/DX2                !
 ! R9    R(4,8)                  1.4281         estimate D2E/DX2                !
 ! R10   R(5,6)                  1.4133         estimate D2E/DX2                !
 ! R11   R(5,14)                 1.4134         estimate D2E/DX2                !
 ! R12   R(6,18)                 1.0825         estimate D2E/DX2                !
 ! R13   R(7,10)                 1.4281         estimate D2E/DX2                !
 ! R14   R(7,19)                 1.3858         estimate D2E/DX2                !
 ! R15   R(8,9)                  1.4729         estimate D2E/DX2                !
 ! R16   R(8,12)                 1.3859         estimate D2E/DX2                !
 ! R17   R(9,10)                 1.4281         estimate D2E/DX2                !
 ! R18   R(9,11)                 1.3859         estimate D2E/DX2                !
 ! R19   R(10,22)                1.4303         estimate D2E/DX2                !
 ! R20   R(11,25)                1.4016         estimate D2E/DX2                !
 ! R21   R(11,32)                1.0795         estimate D2E/DX2                !
 ! R22   R(12,13)                1.4016         estimate D2E/DX2                !
 ! R23   R(12,31)                1.0795         estimate D2E/DX2                !
 ! R24   R(13,14)                1.3697         estimate D2E/DX2                !
 ! R25   R(13,16)                1.0821         estimate D2E/DX2                !
 ! R26   R(14,15)                1.0825         estimate D2E/DX2                !
 ! R27   R(19,20)                1.4016         estimate D2E/DX2                !
 ! R28   R(19,30)                1.0795         estimate D2E/DX2                !
 ! R29   R(20,21)                1.3698         estimate D2E/DX2                !
 ! R30   R(20,23)                1.0821         estimate D2E/DX2                !
 ! R31   R(21,22)                1.4134         estimate D2E/DX2                !
 ! R32   R(21,24)                1.0825         estimate D2E/DX2                !
 ! R33   R(22,27)                1.4133         estimate D2E/DX2                !
 ! R34   R(25,26)                1.0821         estimate D2E/DX2                !
 ! R35   R(25,27)                1.3698         estimate D2E/DX2                !
 ! R36   R(27,28)                1.0825         estimate D2E/DX2                !
 ! A1    A(2,1,6)              120.3086         estimate D2E/DX2                !
 ! A2    A(2,1,17)             119.3563         estimate D2E/DX2                !
 ! A3    A(6,1,17)             120.3351         estimate D2E/DX2                !
 ! A4    A(1,2,3)              121.9912         estimate D2E/DX2                !
 ! A5    A(1,2,29)             117.8256         estimate D2E/DX2                !
 ! A6    A(3,2,29)             120.1832         estimate D2E/DX2                !
 ! A7    A(2,3,4)              118.5289         estimate D2E/DX2                !
 ! A8    A(2,3,7)              122.1658         estimate D2E/DX2                !
 ! A9    A(4,3,7)              119.3053         estimate D2E/DX2                !
 ! A10   A(3,4,5)              119.2949         estimate D2E/DX2                !
 ! A11   A(3,4,8)              121.4032         estimate D2E/DX2                !
 ! A12   A(5,4,8)              119.3018         estimate D2E/DX2                !
 ! A13   A(4,5,6)              119.5898         estimate D2E/DX2                !
 ! A14   A(4,5,14)             119.5879         estimate D2E/DX2                !
 ! A15   A(6,5,14)             120.8223         estimate D2E/DX2                !
 ! A16   A(1,6,5)              120.2865         estimate D2E/DX2                !
 ! A17   A(1,6,18)             120.8123         estimate D2E/DX2                !
 ! A18   A(5,6,18)             118.9012         estimate D2E/DX2                !
 ! A19   A(3,7,10)             119.2982         estimate D2E/DX2                !
 ! A20   A(3,7,19)             122.1772         estimate D2E/DX2                !
 ! A21   A(10,7,19)            118.5246         estimate D2E/DX2                !
 ! A22   A(4,8,9)              119.2938         estimate D2E/DX2                !
 ! A23   A(4,8,12)             118.5139         estimate D2E/DX2                !
 ! A24   A(9,8,12)             122.1922         estimate D2E/DX2                !
 ! A25   A(8,9,10)             119.2973         estimate D2E/DX2                !
 ! A26   A(8,9,11)             122.1884         estimate D2E/DX2                !
 ! A27   A(10,9,11)            118.5143         estimate D2E/DX2                !
 ! A28   A(7,10,9)             121.4021         estimate D2E/DX2                !
 ! A29   A(7,10,22)            119.296          estimate D2E/DX2                !
 ! A30   A(9,10,22)            119.3018         estimate D2E/DX2                !
 ! A31   A(9,11,25)            121.9983         estimate D2E/DX2                !
 ! A32   A(9,11,32)            120.1814         estimate D2E/DX2                !
 ! A33   A(25,11,32)           117.8203         estimate D2E/DX2                !
 ! A34   A(8,12,13)            121.9992         estimate D2E/DX2                !
 ! A35   A(8,12,31)            120.1842         estimate D2E/DX2                !
 ! A36   A(13,12,31)           117.8166         estimate D2E/DX2                !
 ! A37   A(12,13,14)           120.3109         estimate D2E/DX2                !
 ! A38   A(12,13,16)           119.3445         estimate D2E/DX2                !
 ! A39   A(14,13,16)           120.3446         estimate D2E/DX2                !
 ! A40   A(5,14,13)            120.2862         estimate D2E/DX2                !
 ! A41   A(5,14,15)            118.8953         estimate D2E/DX2                !
 ! A42   A(13,14,15)           120.8185         estimate D2E/DX2                !
 ! A43   A(7,19,20)            121.9936         estimate D2E/DX2                !
 ! A44   A(7,19,30)            120.1834         estimate D2E/DX2                !
 ! A45   A(20,19,30)           117.823          estimate D2E/DX2                !
 ! A46   A(19,20,21)           120.31           estimate D2E/DX2                !
 ! A47   A(19,20,23)           119.341          estimate D2E/DX2                !
 ! A48   A(21,20,23)           120.349          estimate D2E/DX2                !
 ! A49   A(20,21,22)           120.2851         estimate D2E/DX2                !
 ! A50   A(20,21,24)           120.8196         estimate D2E/DX2                !
 ! A51   A(22,21,24)           118.8953         estimate D2E/DX2                !
 ! A52   A(10,22,21)           119.5908         estimate D2E/DX2                !
 ! A53   A(10,22,27)           119.5913         estimate D2E/DX2                !
 ! A54   A(21,22,27)           120.8179         estimate D2E/DX2                !
 ! A55   A(11,25,26)           119.3482         estimate D2E/DX2                !
 ! A56   A(11,25,27)           120.3083         estimate D2E/DX2                !
 ! A57   A(26,25,27)           120.3435         estimate D2E/DX2                !
 ! A58   A(22,27,25)           120.286          estimate D2E/DX2                !
 ! A59   A(22,27,28)           118.8948         estimate D2E/DX2                !
 ! A60   A(25,27,28)           120.8192         estimate D2E/DX2                !
 ! D1    D(6,1,2,3)              0.0002         estimate D2E/DX2                !
 ! D2    D(6,1,2,29)           179.9996         estimate D2E/DX2                !
 ! D3    D(17,1,2,3)           179.9997         estimate D2E/DX2                !
 ! D4    D(17,1,2,29)           -0.0009         estimate D2E/DX2                !
 ! D5    D(2,1,6,5)             -0.0024         estimate D2E/DX2                !
 ! D6    D(2,1,6,18)           179.9985         estimate D2E/DX2                !
 ! D7    D(17,1,6,5)           179.9981         estimate D2E/DX2                !
 ! D8    D(17,1,6,18)           -0.0011         estimate D2E/DX2                !
 ! D9    D(1,2,3,4)              0.0038         estimate D2E/DX2                !
 ! D10   D(1,2,3,7)           -179.9958         estimate D2E/DX2                !
 ! D11   D(29,2,3,4)          -179.9956         estimate D2E/DX2                !
 ! D12   D(29,2,3,7)             0.0048         estimate D2E/DX2                !
 ! D13   D(2,3,4,5)             -0.0057         estimate D2E/DX2                !
 ! D14   D(2,3,4,8)            179.9939         estimate D2E/DX2                !
 ! D15   D(7,3,4,5)            179.994          estimate D2E/DX2                !
 ! D16   D(7,3,4,8)             -0.0064         estimate D2E/DX2                !
 ! D17   D(2,3,7,10)          -179.9881         estimate D2E/DX2                !
 ! D18   D(2,3,7,19)             0.0116         estimate D2E/DX2                !
 ! D19   D(4,3,7,10)             0.0122         estimate D2E/DX2                !
 ! D20   D(4,3,7,19)          -179.9881         estimate D2E/DX2                !
 ! D21   D(3,4,5,6)              0.0037         estimate D2E/DX2                !
 ! D22   D(3,4,5,14)          -179.9966         estimate D2E/DX2                !
 ! D23   D(8,4,5,6)           -179.996          estimate D2E/DX2                !
 ! D24   D(8,4,5,14)             0.0038         estimate D2E/DX2                !
 ! D25   D(3,4,8,9)             -0.0052         estimate D2E/DX2                !
 ! D26   D(3,4,8,12)           179.9955         estimate D2E/DX2                !
 ! D27   D(5,4,8,9)            179.9944         estimate D2E/DX2                !
 ! D28   D(5,4,8,12)            -0.0049         estimate D2E/DX2                !
 ! D29   D(4,5,6,1)              0.0004         estimate D2E/DX2                !
 ! D30   D(4,5,6,18)           179.9996         estimate D2E/DX2                !
 ! D31   D(14,5,6,1)          -179.9993         estimate D2E/DX2                !
 ! D32   D(14,5,6,18)           -0.0001         estimate D2E/DX2                !
 ! D33   D(4,5,14,13)           -0.0003         estimate D2E/DX2                !
 ! D34   D(4,5,14,15)          179.9993         estimate D2E/DX2                !
 ! D35   D(6,5,14,13)          179.9994         estimate D2E/DX2                !
 ! D36   D(6,5,14,15)           -0.001          estimate D2E/DX2                !
 ! D37   D(3,7,10,9)            -0.0063         estimate D2E/DX2                !
 ! D38   D(3,7,10,22)          179.994          estimate D2E/DX2                !
 ! D39   D(19,7,10,9)          179.9939         estimate D2E/DX2                !
 ! D40   D(19,7,10,22)          -0.0057         estimate D2E/DX2                !
 ! D41   D(3,7,19,20)         -179.9958         estimate D2E/DX2                !
 ! D42   D(3,7,19,30)            0.0048         estimate D2E/DX2                !
 ! D43   D(10,7,19,20)           0.0039         estimate D2E/DX2                !
 ! D44   D(10,7,19,30)        -179.9955         estimate D2E/DX2                !
 ! D45   D(4,8,9,10)             0.0111         estimate D2E/DX2                !
 ! D46   D(4,8,9,11)          -179.9896         estimate D2E/DX2                !
 ! D47   D(12,8,9,10)         -179.9896         estimate D2E/DX2                !
 ! D48   D(12,8,9,11)            0.0097         estimate D2E/DX2                !
 ! D49   D(4,8,12,13)            0.0028         estimate D2E/DX2                !
 ! D50   D(4,8,12,31)         -179.9968         estimate D2E/DX2                !
 ! D51   D(9,8,12,13)         -179.9965         estimate D2E/DX2                !
 ! D52   D(9,8,12,31)            0.0039         estimate D2E/DX2                !
 ! D53   D(8,9,10,7)            -0.0052         estimate D2E/DX2                !
 ! D54   D(8,9,10,22)          179.9944         estimate D2E/DX2                !
 ! D55   D(11,9,10,7)          179.9954         estimate D2E/DX2                !
 ! D56   D(11,9,10,22)          -0.0049         estimate D2E/DX2                !
 ! D57   D(8,9,11,25)         -179.9964         estimate D2E/DX2                !
 ! D58   D(8,9,11,32)            0.0039         estimate D2E/DX2                !
 ! D59   D(10,9,11,25)           0.0029         estimate D2E/DX2                !
 ! D60   D(10,9,11,32)        -179.9968         estimate D2E/DX2                !
 ! D61   D(7,10,22,21)           0.0036         estimate D2E/DX2                !
 ! D62   D(7,10,22,27)        -179.9967         estimate D2E/DX2                !
 ! D63   D(9,10,22,21)        -179.9961         estimate D2E/DX2                !
 ! D64   D(9,10,22,27)           0.0037         estimate D2E/DX2                !
 ! D65   D(9,11,25,26)         179.9999         estimate D2E/DX2                !
 ! D66   D(9,11,25,27)           0.0006         estimate D2E/DX2                !
 ! D67   D(32,11,25,26)         -0.0005         estimate D2E/DX2                !
 ! D68   D(32,11,25,27)       -179.9998         estimate D2E/DX2                !
 ! D69   D(8,12,13,14)           0.0006         estimate D2E/DX2                !
 ! D70   D(8,12,13,16)        -180.0            estimate D2E/DX2                !
 ! D71   D(31,12,13,14)       -179.9997         estimate D2E/DX2                !
 ! D72   D(31,12,13,16)         -0.0003         estimate D2E/DX2                !
 ! D73   D(12,13,14,5)          -0.0019         estimate D2E/DX2                !
 ! D74   D(12,13,14,15)        179.9985         estimate D2E/DX2                !
 ! D75   D(16,13,14,5)         179.9987         estimate D2E/DX2                !
 ! D76   D(16,13,14,15)         -0.0009         estimate D2E/DX2                !
 ! D77   D(7,19,20,21)           0.0001         estimate D2E/DX2                !
 ! D78   D(7,19,20,23)         179.9996         estimate D2E/DX2                !
 ! D79   D(30,19,20,21)        179.9996         estimate D2E/DX2                !
 ! D80   D(30,19,20,23)         -0.001          estimate D2E/DX2                !
 ! D81   D(19,20,21,22)         -0.0024         estimate D2E/DX2                !
 ! D82   D(19,20,21,24)        179.9985         estimate D2E/DX2                !
 ! D83   D(23,20,21,22)        179.9982         estimate D2E/DX2                !
 ! D84   D(23,20,21,24)         -0.001          estimate D2E/DX2                !
 ! D85   D(20,21,22,10)          0.0005         estimate D2E/DX2                !
 ! D86   D(20,21,22,27)       -179.9993         estimate D2E/DX2                !
 ! D87   D(24,21,22,10)        179.9996         estimate D2E/DX2                !
 ! D88   D(24,21,22,27)         -0.0001         estimate D2E/DX2                !
 ! D89   D(10,22,27,25)         -0.0003         estimate D2E/DX2                !
 ! D90   D(10,22,27,28)        179.9993         estimate D2E/DX2                !
 ! D91   D(21,22,27,25)        179.9995         estimate D2E/DX2                !
 ! D92   D(21,22,27,28)         -0.001          estimate D2E/DX2                !
 ! D93   D(11,25,27,22)         -0.0019         estimate D2E/DX2                !
 ! D94   D(11,25,27,28)        179.9986         estimate D2E/DX2                !
 ! D95   D(26,25,27,22)        179.9988         estimate D2E/DX2                !
 ! D96   D(26,25,27,28)         -0.0007         estimate D2E/DX2                !
 --------------------------------------------------------------------------------
 NAtoms=     32 NQM=       32 NQMF=       0 NMMI=      0 NMMIF=      0
                NMic=       0 NMicF=      0.
                    Isotopes and Nuclear Properties:
 (Nuclear quadrupole moments (NQMom) in fm**2, nuclear magnetic moments (NMagM)
  in nuclear magnetons)

  Atom         1           2           3           4           5           6           7           8           9          10
 IAtWgt=          12          12          12          12          12          12          12          12          12          12
 AtmWgt=  12.0000000  12.0000000  12.0000000  12.0000000  12.0000000  12.0000000  12.0000000  12.0000000  12.0000000  12.0000000
 NucSpn=           0           0           0           0           0           0           0           0           0           0
 AtZEff=   3.6000000   3.6000000   3.6000000   3.6000000   3.6000000   3.6000000   3.6000000   3.6000000   3.6000000   3.6000000
 NQMom=    0.0000000   0.0000000   0.0000000   0.0000000   0.0000000   0.0000000   0.0000000   0.0000000   0.0000000   0.0000000
 NMagM=    0.0000000   0.0000000   0.0000000   0.0000000   0.0000000   0.0000000   0.0000000   0.0000000   0.0000000   0.0000000
 AtZNuc=   6.0000000   6.0000000   6.0000000   6.0000000   6.0000000   6.0000000   6.0000000   6.0000000   6.0000000   6.0000000

  Atom        11          12          13          14          15          16          17          18          19          20
 IAtWgt=          12          12          12          12           1           1           1           1          12          12
 AtmWgt=  12.0000000  12.0000000  12.0000000  12.0000000   1.0078250   1.0078250   1.0078250   1.0078250  12.0000000  12.0000000
 NucSpn=           0           0           0           0           1           1           1           1           0           0
 AtZEff=   3.6000000   3.6000000   3.6000000   3.6000000   1.0000000   1.0000000   1.0000000   1.0000000   3.6000000   3.6000000
 NQMom=    0.0000000   0.0000000   0.0000000   0.0000000   0.0000000   0.0000000   0.0000000   0.0000000   0.0000000   0.0000000
 NMagM=    0.0000000   0.0000000   0.0000000   0.0000000   2.7928460   2.7928460   2.7928460   2.7928460   0.0000000   0.0000000
 AtZNuc=   6.0000000   6.0000000   6.0000000   6.0000000   1.0000000   1.0000000   1.0000000   1.0000000   6.0000000   6.0000000

  Atom        21          22          23          24          25          26          27          28          29          30
 IAtWgt=          12          12           1           1          12           1          12           1           1           1
 AtmWgt=  12.0000000  12.0000000   1.0078250   1.0078250  12.0000000   1.0078250  12.0000000   1.0078250   1.0078250   1.0078250
 NucSpn=           0           0           1           1           0           1           0           1           1           1
 AtZEff=   3.6000000   3.6000000   1.0000000   1.0000000   3.6000000   1.0000000   3.6000000   1.0000000   1.0000000   1.0000000
 NQMom=    0.0000000   0.0000000   0.0000000   0.0000000   0.0000000   0.0000000   0.0000000   0.0000000   0.0000000   0.0000000
 NMagM=    0.0000000   0.0000000   2.7928460   2.7928460   0.0000000   2.7928460   0.0000000   2.7928460   2.7928460   2.7928460
 AtZNuc=   6.0000000   6.0000000   1.0000000   1.0000000   6.0000000   1.0000000   6.0000000   1.0000000   1.0000000   1.0000000

  Atom        31          32
 IAtWgt=           1           1
 AtmWgt=   1.0078250   1.0078250
 NucSpn=           1           1
 AtZEff=   1.0000000   1.0000000
 NQMom=    0.0000000   0.0000000
 NMagM=    2.7928460   2.7928460
 AtZNuc=   1.0000000   1.0000000
 Leave Link  101 at Wed Mar 13 11:57:56 2024, MaxMem=120795955200 cpu:              35.9 elap:               0.3
 (Enter /apps/gaussian/g16-c01-avx2/g16/l202.exe)
                          Input orientation:                          
 ---------------------------------------------------------------------
 Center     Atomic      Atomic             Coordinates (Angstroms)
 Number     Number       Type             X           Y           Z
 ---------------------------------------------------------------------
      1          6           0       -1.235041   -3.379590   -0.000477
      2          6           0        0.166293   -3.358522   -0.000287
      3          6           0        0.882756   -2.172224    0.000016
      4          6           0        0.161423   -0.939848    0.000220
      5          6           0       -1.268761   -0.965968   -0.000017
      6          6           0       -1.944062   -2.207470   -0.000370
      7          6           0        2.355221   -2.145598    0.000126
      8          6           0        0.837509    0.318118    0.000664
      9          6           0        2.310163    0.344808    0.001034
     10          6           0        3.031436   -0.887746    0.000699
     11          6           0        3.027071    1.530896    0.001685
     12          6           0        0.078036    1.477366    0.000746
     13          6           0       -1.323226    1.447248    0.000466
     14          6           0       -1.988957    0.250161    0.000111
     15          1           0       -3.070933    0.217313   -0.000083
     16          1           0       -1.873659    2.378873    0.000543
     17          1           0       -1.751278   -4.330581   -0.000716
     18          1           0       -3.026520   -2.214228   -0.000540
     19          6           0        3.114297   -3.305007   -0.000304
     20          6           0        4.515561   -3.275176   -0.000111
     21          6           0        5.181529   -2.078197    0.000523
     22          6           0        4.461536   -0.861941    0.000936
     23          1           0        5.065742   -4.206943   -0.000457
     24          1           0        6.263514   -2.045532    0.000701
     25          6           0        4.428474    1.551643    0.001960
     26          1           0        4.944797    2.502591    0.002469
     27          6           0        5.137168    0.379441    0.001575
     28          1           0        6.219628    0.385813    0.001761
     29          1           0        0.684497   -4.305552   -0.000374
     30          1           0        2.630865   -4.270255   -0.000815
     31          1           0        0.561134    2.442712    0.001027
     32          1           0        2.509202    2.478040    0.002003
 ---------------------------------------------------------------------
                    Distance matrix (angstroms):
                    1          2          3          4          5
     1  C    0.000000
     2  C    1.401492   0.000000
     3  C    2.437785   1.385865   0.000000
     4  C    2.811130   2.418679   1.427961   0.000000
     5  C    2.413858   2.789927   2.466592   1.430422   0.000000
     6  C    1.369881   2.403855   2.827038   2.457628   1.413280
     7  C    3.796408   2.502517   1.472705   2.503315   3.811137
     8  C    4.238928   3.737407   2.490753   1.428136   2.466830
     9  C    5.141946   4.279116   2.893603   2.503482   3.811407
    10  C    4.940862   3.783356   2.503340   2.870487   4.300908
    11  C    6.502190   5.664844   4.279157   3.783717   4.968753
    12  C    5.031322   4.836694   3.737256   2.418652   2.789936
    13  C    4.827643   5.031311   4.238742   2.811122   2.413830
    14  C    3.707220   4.203296   3.756952   2.457693   1.413383
    15  H    4.038343   4.823508   4.619691   3.433241   2.155917
    16  H    5.793766   6.089261   5.320743   3.893002   3.399097
    17  H    1.082075   2.149879   3.405385   3.893007   3.399036
    18  H    2.137163   3.391676   3.909502   3.433224   2.155892
    19  C    4.349978   2.948490   2.502593   3.783312   4.968129
    20  C    5.751550   4.350067   3.796548   4.940879   6.228228
    21  C    6.547213   5.176082   4.299801   5.147554   6.545479
    22  C    6.228125   4.968101   3.811103   4.300819   5.731241
    23  H    6.354871   4.972366   4.651608   5.892899   7.115465
    24  H    7.616301   6.236990   5.382249   6.201456   7.609246
    25  C    7.509492   6.501993   5.141916   4.941180   6.228712
    26  H    8.531733   7.562193   6.193067   5.893307   7.116123
    27  C    7.398335   6.219483   4.960949   5.147676   6.545689
    28  H    8.351668   7.117789   5.918257   6.201551   7.609421
    29  H    2.131204   1.079537   2.142520   3.406108   3.868854
    30  H    3.967180   2.627808   2.730864   4.146053   5.111301
    31  H    6.093066   5.814656   4.626130   3.406095   3.868800
    32  H    6.952064   6.289251   4.926488   4.146568   5.112161
                    6          7          8          9         10
     6  C    0.000000
     7  C    4.299728   0.000000
     8  C    3.757092   2.893674   0.000000
     9  C    4.961105   2.490814   1.472896   0.000000
    10  C    5.147549   1.428096   2.503483   1.428084   0.000000
    11  C    6.219932   3.737378   2.503001   1.385916   2.418646
    12  C    4.203202   4.279187   1.385877   2.503014   3.783693
    13  C    3.707075   5.141937   2.437973   3.796958   4.941182
    14  C    2.458041   4.961002   2.827283   4.300162   5.147736
    15  H    2.673839   5.918319   3.909742   5.382606   6.201618
    16  H    4.586884   6.193081   3.405457   4.652073   5.893281
    17  H    2.131845   4.651611   5.320924   6.193107   5.893002
    18  H    1.082479   5.382178   4.619902   5.918518   6.201483
    19  C    5.176059   1.385795   4.279112   3.737350   2.418681
    20  C    6.547269   2.437831   5.141968   4.238876   2.811130
    21  C    7.126764   2.827112   4.961133   3.757086   2.457656
    22  C    6.545391   2.466645   3.811314   2.466708   1.430332
    23  H    7.289393   3.405300   6.193071   5.320869   3.893002
    24  H    8.209174   3.909574   5.918477   4.619817   3.433190
    25  C    7.398659   4.238864   3.796922   2.437969   2.811109
    26  H    8.345123   5.320862   4.652069   3.405485   3.892986
    27  C    7.538961   3.757001   4.300096   2.827217   2.457615
    28  H    8.565686   4.619707   5.382545   3.909681   3.433151
    29  H    3.363223   2.730699   4.626201   4.926321   4.146025
    30  H    5.018470   2.142463   4.926388   4.626193   3.406145
    31  H    5.282065   4.926595   2.142495   2.731356   4.146607
    32  H    6.464176   4.626202   2.731267   2.142498   3.406060
                   11         12         13         14         15
    11  C    0.000000
    12  C    2.949522   0.000000
    13  C    4.351102   1.401586   0.000000
    14  C    5.176952   2.403850   1.369750   0.000000
    15  H    6.237881   3.391717   2.137105   1.082474   0.000000
    16  H    4.973552   2.149843   1.082082   2.131832   2.470993
    17  H    7.562377   6.089224   5.793663   4.586904   4.735486
    18  H    7.118422   4.823498   4.038268   2.673901   2.431946
    19  C    4.836690   5.664802   6.501964   6.219520   7.117852
    20  C    5.031295   6.502176   7.509509   7.398430   8.351789
    21  C    4.203241   6.219942   7.398689   7.539040   8.565775
    22  C    2.789867   4.968645   6.228630   6.545658   7.609394
    23  H    6.089250   7.562313   8.531634   8.344732   9.261724
    24  H    4.823421   7.118353   8.352134   8.565833   9.604810
    25  C    1.401556   4.351073   5.752648   6.548075   7.617188
    26  H    2.149852   4.973576   6.356247   7.290432   8.335133
    27  C    2.403821   5.176896   6.548046   7.127298   8.209702
    28  H    3.391701   6.237840   7.617172   8.209707   9.292090
    29  H    6.289020   5.814631   6.093082   5.282222   5.878738
    30  H    5.814665   6.289045   6.951595   6.463506   7.255947
    31  H    2.629117   1.079480   2.131142   3.363071   4.259615
    32  H    1.079477   2.629052   3.968632   5.019650   6.020697
                   16         17         18         19         20
    16  H    0.000000
    17  H    6.710570   0.000000
    18  H    4.735574   2.470869   0.000000
    19  C    7.562155   4.972487   6.236941   0.000000
    20  C    8.531729   6.355089   7.616338   1.401582   0.000000
    21  C    8.345127   7.289517   8.209176   2.403854   1.369771
    22  C    7.116008   7.115513   7.609183   2.789915   2.413840
    23  H    9.567040   6.818142   8.334004   2.149797   1.082076
    24  H    9.262232   8.334167   9.291565   3.391732   2.137139
    25  C    6.356193   8.531700   8.352169   5.031313   4.827605
    26  H    6.819579   9.567115   9.262305   6.089248   5.793690
    27  C    7.290364   8.344759   8.565800   4.203233   3.707105
    28  H    8.335082   9.261735   9.604763   4.823406   4.038154
    29  H    7.157212   2.435904   4.259728   2.627740   3.967207
    30  H    8.031291   4.382558   6.019406   1.079542   2.131259
    31  H    2.435630   7.157148   5.878636   6.289270   6.952104
    32  H    4.383982   8.031751   7.256831   5.814618   6.093027
                   21         22         23         24         25
    21  C    0.000000
    22  C    1.413389   0.000000
    23  H    2.131893   3.399132   0.000000
    24  H    1.082478   2.155925   2.471104   0.000000
    25  C    3.707132   2.413811   5.793740   4.038197   0.000000
    26  H    4.586901   3.399062   6.710624   4.735445   1.082078
    27  C    2.458038   1.413333   4.586940   2.673790   1.369782
    28  H    2.673761   2.155872   4.735490   2.431741   2.137146
    29  H    5.018407   5.111211   4.382355   6.019396   6.951554
    30  H    3.363185   3.868845   2.435700   4.259757   6.093102
    31  H    6.464261   5.112130   8.031775   7.256822   3.968668
    32  H    5.282104   3.868732   7.157157   5.878568   2.131154
                   26         27         28         29         30
    26  H    0.000000
    27  C    2.131847   0.000000
    28  H    2.471021   1.082480   0.000000
    29  H    8.031250   6.463393   7.255797   0.000000
    30  H    7.157216   5.282162   5.878622   1.946688   0.000000
    31  H    4.384072   5.019678   6.020747   6.749392   7.024793
    32  H    2.435719   3.363082   4.259657   7.024718   6.749392
                   31         32
    31  H    0.000000
    32  H    1.948388   0.000000
 Symmetry turned off by external request.
 Stoichiometry    C20H12
 Framework group  C1[X(C20H12)]
 Deg. of freedom    90
 Full point group                 C1      NOp   1
 Rotational constants (GHZ):           0.6281110           0.3322279           0.2172941
 Leave Link  202 at Wed Mar 13 11:57:56 2024, MaxMem=120795955200 cpu:               2.7 elap:               0.0
 (Enter /apps/gaussian/g16-c01-avx2/g16/l716.exe)
 Electric field and nuclear coordinate derivatives read from checkpoint file.
 Dipole        =-3.16446820D-05-1.04456367D-06 2.24219583D-08
 Polarizability= 3.64956884D+02 1.41612181D+00 2.86699979D+02
                 4.17344025D-02 5.76920575D-02 1.04351468D+02
 Full mass-weighted force constant matrix:
 Low frequencies ---   -5.8742   -4.2247   -0.9068   -0.0005    0.0003    0.0006
 Low frequencies ---   22.9764   95.0458  128.3208
 Diagonal vibrational polarizability:
        2.5943398       1.0297021      15.9160403
 Harmonic frequencies (cm**-1), IR intensities (KM/Mole), Raman scattering
 activities (A**4/AMU), depolarization ratios for plane and unpolarized
 incident light, reduced masses (AMU), force constants (mDyne/A),
 and normal coordinates:
                      1                      2                      3
                      A                      A                      A
 Frequencies --     22.9728                95.0458               128.3206
 Red. masses --      4.6969                 4.6784                 3.5009
 Frc consts  --      0.0015                 0.0249                 0.0340
 IR Inten    --      0.0000                 0.7594                 0.0000
  Atom  AN      X      Y      Z        X      Y      Z        X      Y      Z
     1   6    -0.00  -0.00   0.20     0.00  -0.00   0.05     0.00  -0.00   0.10
     2   6    -0.00  -0.00   0.17     0.00   0.00  -0.12     0.00  -0.00   0.17
     3   6    -0.00  -0.00   0.05     0.00   0.00  -0.15     0.00   0.00   0.01
     4   6     0.00   0.00  -0.00     0.00   0.00  -0.07     0.00   0.00  -0.06
     5   6     0.00  -0.00  -0.00    -0.00  -0.00   0.11     0.00   0.00  -0.12
     6   6    -0.00  -0.00   0.11    -0.00  -0.00   0.19     0.00  -0.00  -0.10
     7   6     0.00   0.00  -0.05     0.00   0.00  -0.15    -0.00   0.00  -0.01
     8   6     0.00   0.00  -0.05     0.00   0.00  -0.15    -0.00   0.00   0.01
     9   6    -0.00  -0.00   0.05     0.00   0.00  -0.15     0.00   0.00  -0.01
    10   6    -0.00   0.00   0.00     0.00   0.00  -0.07    -0.00  -0.00   0.06
    11   6    -0.00  -0.00   0.17     0.00   0.00  -0.12     0.00   0.00  -0.17
    12   6     0.00   0.00  -0.17     0.00   0.00  -0.12    -0.00  -0.00   0.17
    13   6     0.00   0.00  -0.20    -0.00  -0.00   0.05    -0.00  -0.00   0.10
    14   6     0.00   0.00  -0.11    -0.00  -0.00   0.19    -0.00  -0.00  -0.10
    15   1     0.00   0.00  -0.11    -0.00  -0.00   0.34     0.00  -0.00  -0.16
    16   1     0.00   0.00  -0.30    -0.00  -0.00   0.09    -0.00  -0.00   0.20
    17   1    -0.00  -0.00   0.30     0.00  -0.00   0.09     0.00  -0.00   0.20
    18   1    -0.00  -0.00   0.11    -0.00  -0.00   0.34     0.00  -0.00  -0.16
    19   6     0.00   0.00  -0.17     0.00   0.00  -0.12    -0.00   0.00  -0.17
    20   6     0.00   0.00  -0.20     0.00  -0.00   0.05    -0.00   0.00  -0.10
    21   6     0.00   0.00  -0.11    -0.00  -0.00   0.19    -0.00  -0.00   0.10
    22   6    -0.00  -0.00   0.00    -0.00  -0.00   0.11    -0.00  -0.00   0.12
    23   1     0.00   0.00  -0.30     0.00  -0.00   0.09    -0.00   0.00  -0.20
    24   1     0.00   0.00  -0.11    -0.00  -0.00   0.34    -0.00  -0.00   0.16
    25   6    -0.00  -0.00   0.20    -0.00  -0.00   0.05     0.00   0.00  -0.10
    26   1    -0.00  -0.00   0.30    -0.00  -0.00   0.09     0.00   0.00  -0.20
    27   6    -0.00  -0.00   0.11    -0.00  -0.00   0.19     0.00  -0.00   0.10
    28   1    -0.00  -0.00   0.11    -0.00  -0.00   0.34    -0.00  -0.00   0.16
    29   1    -0.00  -0.00   0.25     0.00   0.00  -0.20     0.00  -0.00   0.36
    30   1     0.00   0.00  -0.25     0.00   0.00  -0.20    -0.00   0.00  -0.36
    31   1     0.00   0.00  -0.25     0.00   0.00  -0.20    -0.00  -0.00   0.36
    32   1    -0.00  -0.00   0.25     0.00   0.00  -0.20     0.00   0.00  -0.36
                      4                      5                      6
                      A                      A                      A
 Frequencies --    177.4335               206.3622               237.8085
 Red. masses --      4.3236                 3.9486                 3.2901
 Frc consts  --      0.0802                 0.0991                 0.1096
 IR Inten    --      6.4443                 0.0000                 0.0000
  Atom  AN      X      Y      Z        X      Y      Z        X      Y      Z
     1   6     0.00   0.00  -0.15    -0.00  -0.00   0.10    -0.00   0.00   0.05
     2   6    -0.00   0.00  -0.11     0.00   0.00  -0.13    -0.00   0.00  -0.15
     3   6    -0.00  -0.00   0.11     0.00   0.00  -0.12    -0.00  -0.00  -0.04
     4   6    -0.00  -0.00   0.19    -0.00   0.00   0.00    -0.00  -0.00  -0.00
     5   6    -0.00  -0.00   0.15    -0.00   0.00   0.00    -0.00   0.00  -0.00
     6   6    -0.00  -0.00   0.03    -0.00  -0.00   0.16    -0.00  -0.00   0.16
     7   6    -0.00  -0.00   0.11     0.00   0.00  -0.12     0.00  -0.00   0.05
     8   6    -0.00  -0.00   0.10    -0.00  -0.00   0.12    -0.00  -0.00   0.04
     9   6    -0.00  -0.00   0.10    -0.00  -0.00   0.12     0.00   0.00  -0.04
    10   6    -0.00  -0.00   0.19    -0.00  -0.00   0.00     0.00  -0.00   0.00
    11   6     0.00   0.00  -0.11    -0.00  -0.00   0.13     0.00   0.00  -0.15
    12   6     0.00   0.00  -0.11    -0.00  -0.00   0.13    -0.00  -0.00   0.15
    13   6     0.00   0.00  -0.15     0.00   0.00  -0.10     0.00   0.00  -0.05
    14   6     0.00  -0.00   0.03     0.00   0.00  -0.16     0.00   0.00  -0.16
    15   1     0.00   0.00  -0.00     0.00   0.00  -0.29     0.00   0.00  -0.30
    16   1     0.00   0.00  -0.33     0.00   0.00  -0.21     0.00   0.00  -0.11
    17   1     0.00   0.00  -0.33    -0.00  -0.00   0.21    -0.00  -0.00   0.11
    18   1    -0.00   0.00  -0.00    -0.00  -0.00   0.29    -0.00  -0.00   0.30
    19   6    -0.00   0.00  -0.11     0.00   0.00  -0.13     0.00  -0.00   0.15
    20   6     0.00   0.00  -0.15    -0.00  -0.00   0.10     0.00   0.00  -0.05
    21   6    -0.00  -0.00   0.03    -0.00  -0.00   0.16     0.00   0.00  -0.16
    22   6    -0.00  -0.00   0.15    -0.00  -0.00   0.00     0.00   0.00   0.00
    23   1     0.00   0.00  -0.33    -0.00  -0.00   0.21     0.00   0.00  -0.11
    24   1    -0.00  -0.00  -0.00    -0.00  -0.00   0.29     0.00   0.00  -0.30
    25   6     0.00   0.00  -0.15     0.00   0.00  -0.10    -0.00  -0.00   0.05
    26   1     0.00   0.00  -0.33     0.00   0.00  -0.21    -0.00  -0.00   0.11
    27   6     0.00  -0.00   0.03     0.00   0.00  -0.16    -0.00  -0.00   0.16
    28   1     0.00  -0.00  -0.00     0.00   0.00  -0.29    -0.00  -0.00   0.30
    29   1     0.00   0.00  -0.26     0.00   0.00  -0.23    -0.00   0.00  -0.31
    30   1     0.00   0.00  -0.26     0.00   0.00  -0.23     0.00  -0.00   0.31
    31   1     0.00   0.00  -0.26    -0.00  -0.00   0.23    -0.00  -0.00   0.31
    32   1     0.00   0.00  -0.26    -0.00  -0.00   0.23     0.00   0.00  -0.31
                      7                      8                      9
                      A                      A                      A
 Frequencies --    254.9297               298.4191               356.6551
 Red. masses --      5.0216                 4.8978                 6.6085
 Frc consts  --      0.1923                 0.2570                 0.4953
 IR Inten    --      0.1661                 0.0000                 0.0000
  Atom  AN      X      Y      Z        X      Y      Z        X      Y      Z
     1   6     0.16  -0.07  -0.00    -0.00   0.00  -0.08     0.20  -0.05  -0.00
     2   6     0.13   0.06  -0.00    -0.00  -0.00   0.10     0.17  -0.04  -0.00
     3   6     0.02   0.12   0.00    -0.00  -0.00   0.14     0.05   0.01  -0.00
     4   6    -0.00   0.09   0.00    -0.00  -0.00   0.27     0.09   0.00   0.00
     5   6     0.00  -0.05   0.00    -0.00  -0.00   0.15     0.14   0.00   0.00
     6   6     0.09  -0.11   0.00    -0.00   0.00  -0.07     0.20  -0.04   0.00
     7   6    -0.02   0.12  -0.00     0.00   0.00  -0.14    -0.05   0.01   0.00
     8   6    -0.02   0.12   0.00    -0.00  -0.00   0.14     0.05  -0.01   0.00
     9   6     0.02   0.12  -0.00     0.00   0.00  -0.14    -0.05  -0.01  -0.00
    10   6    -0.00   0.09  -0.00     0.00   0.00  -0.27    -0.09  -0.00  -0.00
    11   6     0.13   0.06   0.00    -0.00   0.00  -0.10    -0.17   0.04  -0.00
    12   6    -0.14   0.06   0.00     0.00  -0.00   0.10     0.16   0.04   0.00
    13   6    -0.16  -0.07  -0.00     0.00   0.00  -0.08     0.19   0.05   0.00
    14   6    -0.09  -0.11  -0.00     0.00   0.00  -0.07     0.20   0.04   0.00
    15   1    -0.09  -0.18  -0.00     0.00   0.00  -0.30     0.20   0.08  -0.00
    16   1    -0.22  -0.11  -0.00     0.00   0.00  -0.27     0.18   0.05   0.00
    17   1     0.23  -0.11  -0.00    -0.00   0.00  -0.27     0.18  -0.04   0.00
    18   1     0.09  -0.17  -0.00     0.00   0.00  -0.30     0.20  -0.07   0.00
    19   6    -0.14   0.06   0.00     0.00   0.00  -0.10    -0.16  -0.04   0.00
    20   6    -0.15  -0.07   0.00     0.00  -0.00   0.08    -0.19  -0.06  -0.00
    21   6    -0.09  -0.11  -0.00     0.00   0.00   0.07    -0.20  -0.04  -0.00
    22   6     0.00  -0.05  -0.00     0.00   0.00  -0.15    -0.14  -0.00  -0.00
    23   1    -0.22  -0.11   0.00     0.00  -0.00   0.27    -0.18  -0.05  -0.00
    24   1    -0.09  -0.18  -0.00    -0.00  -0.00   0.30    -0.20  -0.08  -0.00
    25   6     0.16  -0.07   0.00    -0.00  -0.00   0.08    -0.20   0.05  -0.00
    26   1     0.23  -0.11   0.00    -0.00  -0.00   0.27    -0.18   0.04  -0.00
    27   6     0.09  -0.11   0.00    -0.00   0.00   0.07    -0.20   0.04   0.00
    28   1     0.09  -0.17   0.00    -0.00  -0.00   0.30    -0.20   0.07   0.00
    29   1     0.21   0.11  -0.00    -0.00  -0.00   0.02     0.20  -0.01  -0.00
    30   1    -0.21   0.10   0.00     0.00  -0.00  -0.02    -0.20  -0.02   0.00
    31   1    -0.21   0.10  -0.00     0.00  -0.00   0.02     0.20   0.02   0.00
    32   1     0.21   0.11   0.00    -0.00  -0.00  -0.02    -0.20   0.01  -0.00
                     10                     11                     12
                      A                      A                      A
 Frequencies --    365.8843               429.2718               436.5850
 Red. masses --      6.9702                 4.3313                 4.9459
 Frc consts  --      0.5498                 0.4703                 0.5554
 IR Inten    --      0.0000                 0.0000                 0.0000
  Atom  AN      X      Y      Z        X      Y      Z        X      Y      Z
     1   6    -0.17  -0.12  -0.00    -0.00   0.00  -0.11    -0.09   0.01   0.00
     2   6    -0.15  -0.14  -0.00    -0.00  -0.00  -0.04    -0.09  -0.08  -0.00
     3   6    -0.11  -0.11  -0.00    -0.00  -0.00   0.20     0.02  -0.12  -0.00
     4   6     0.00  -0.11  -0.00     0.00   0.00   0.00     0.16   0.00   0.00
     5   6     0.00  -0.11  -0.00     0.00   0.00  -0.00     0.21   0.00   0.00
     6   6    -0.10  -0.07  -0.00    -0.00  -0.00   0.15     0.09   0.10   0.00
     7   6    -0.11   0.11  -0.00    -0.00  -0.00   0.20    -0.01  -0.12  -0.00
     8   6     0.11  -0.11  -0.00     0.00   0.00  -0.20     0.01   0.12   0.00
     9   6     0.11   0.11   0.00     0.00   0.00  -0.20    -0.02   0.12   0.00
    10   6    -0.00   0.11  -0.00     0.00  -0.00  -0.00    -0.16  -0.00  -0.00
    11   6     0.15   0.14   0.00    -0.00  -0.00   0.04     0.09   0.08   0.00
    12   6     0.16  -0.13  -0.00    -0.00   0.00   0.04    -0.09   0.08  -0.00
    13   6     0.17  -0.12   0.00    -0.00  -0.00   0.11    -0.09  -0.01  -0.00
    14   6     0.10  -0.07  -0.00     0.00   0.00  -0.15     0.09  -0.09   0.00
    15   1     0.10   0.02   0.00     0.00   0.00  -0.29     0.10  -0.27  -0.00
    16   1     0.20  -0.10   0.00    -0.00  -0.00   0.26    -0.20  -0.08  -0.00
    17   1    -0.20  -0.10   0.00    -0.00   0.00  -0.26    -0.21   0.07   0.00
    18   1    -0.10   0.02   0.00    -0.00  -0.00   0.29     0.09   0.28   0.00
    19   6    -0.16   0.13   0.00    -0.00   0.00  -0.04     0.09  -0.08  -0.00
    20   6    -0.17   0.12   0.00    -0.00   0.00  -0.11     0.09   0.01  -0.00
    21   6    -0.10   0.07   0.00    -0.00  -0.00   0.15    -0.09   0.09   0.00
    22   6    -0.00   0.11  -0.00     0.00  -0.00  -0.00    -0.21  -0.00  -0.00
    23   1    -0.20   0.10   0.00    -0.00   0.00  -0.26     0.20   0.08   0.00
    24   1    -0.10  -0.02   0.00    -0.00  -0.00   0.29    -0.10   0.27   0.00
    25   6     0.17   0.12   0.00    -0.00  -0.00   0.11     0.09  -0.01   0.00
    26   1     0.20   0.10   0.00    -0.00  -0.00   0.26     0.21  -0.07  -0.00
    27   6     0.10   0.07   0.00     0.00   0.00  -0.15    -0.09  -0.10  -0.00
    28   1     0.10  -0.02   0.00     0.00   0.00  -0.29    -0.09  -0.28  -0.00
    29   1    -0.18  -0.15  -0.00    -0.00   0.00  -0.15    -0.13  -0.11  -0.00
    30   1    -0.18   0.15   0.00    -0.00   0.00  -0.15     0.13  -0.11   0.00
    31   1     0.18  -0.15  -0.00    -0.00  -0.00   0.15    -0.13   0.11  -0.00
    32   1     0.18   0.15   0.00    -0.00  -0.00   0.15     0.13   0.11   0.00
                     13                     14                     15
                      A                      A                      A
 Frequencies --    465.7010               470.4621               482.7161
 Red. masses --      3.0882                 4.6118                 3.3982
 Frc consts  --      0.3946                 0.6014                 0.4665
 IR Inten    --      0.0000                 3.1876                 0.4558
  Atom  AN      X      Y      Z        X      Y      Z        X      Y      Z
     1   6     0.00   0.00  -0.13    -0.09   0.13   0.00    -0.00   0.00  -0.12
     2   6    -0.00  -0.00   0.09    -0.08   0.08  -0.00    -0.00  -0.00   0.13
     3   6     0.00  -0.00  -0.05     0.06   0.01  -0.00     0.00   0.00  -0.06
     4   6     0.00   0.00  -0.14     0.12   0.00   0.00     0.00   0.00  -0.13
     5   6    -0.00  -0.00   0.10     0.14   0.00   0.00    -0.00  -0.00   0.13
     6   6    -0.00   0.00   0.07    -0.00   0.15   0.00    -0.00  -0.00   0.05
     7   6    -0.00  -0.00   0.05     0.06  -0.00  -0.00     0.00   0.00  -0.06
     8   6     0.00   0.00  -0.05     0.06  -0.00   0.00     0.00   0.00  -0.06
     9   6    -0.00  -0.00   0.05     0.06   0.01   0.00     0.00   0.00  -0.06
    10   6    -0.00  -0.00   0.14     0.12   0.00   0.00     0.00   0.00  -0.13
    11   6     0.00   0.00  -0.09    -0.08   0.08   0.00    -0.00  -0.00   0.13
    12   6    -0.00  -0.00   0.09    -0.08  -0.08  -0.00    -0.00  -0.00   0.13
    13   6     0.00   0.00  -0.13    -0.09  -0.13  -0.00     0.00   0.00  -0.12
    14   6    -0.00  -0.00   0.07     0.01  -0.15  -0.00     0.00  -0.00   0.05
    15   1    -0.00  -0.00   0.10     0.01  -0.31  -0.00     0.00  -0.00   0.00
    16   1     0.00   0.00  -0.26    -0.12  -0.15  -0.00     0.00   0.00  -0.31
    17   1     0.00   0.00  -0.26    -0.13   0.15   0.00     0.00   0.00  -0.31
    18   1    -0.00   0.00   0.10     0.00   0.31   0.00    -0.00   0.00   0.00
    19   6     0.00   0.00  -0.09    -0.08  -0.08  -0.00    -0.00  -0.00   0.13
    20   6    -0.00  -0.00   0.13    -0.09  -0.13  -0.00    -0.00   0.00  -0.12
    21   6     0.00   0.00  -0.07     0.01  -0.15  -0.00    -0.00  -0.00   0.05
    22   6     0.00   0.00  -0.10     0.14   0.00   0.00    -0.00  -0.00   0.13
    23   1    -0.00  -0.00   0.26    -0.12  -0.15  -0.00     0.00   0.00  -0.31
    24   1     0.00   0.00  -0.10     0.01  -0.31  -0.00    -0.00  -0.00  -0.00
    25   6    -0.00  -0.00   0.13    -0.09   0.13   0.00     0.00   0.00  -0.12
    26   1    -0.00  -0.00   0.26    -0.13   0.15   0.00     0.00   0.00  -0.31
    27   6     0.00   0.00  -0.07    -0.00   0.15   0.00     0.00  -0.00   0.05
    28   1     0.00   0.00  -0.10     0.00   0.31   0.00     0.00   0.00  -0.00
    29   1    -0.00  -0.00   0.35    -0.18   0.02  -0.00    -0.00  -0.00   0.32
    30   1     0.00   0.00  -0.35    -0.18  -0.03  -0.00    -0.00  -0.00   0.32
    31   1    -0.00  -0.00   0.35    -0.18  -0.03  -0.00    -0.00  -0.00   0.32
    32   1     0.00   0.00  -0.35    -0.18   0.02  -0.00    -0.00  -0.00   0.32
                     16                     17                     18
                      A                      A                      A
 Frequencies --    539.7755               543.5343               545.8987
 Red. masses --      3.7455                 7.4020                 6.3503
 Frc consts  --      0.6430                 1.2884                 1.1150
 IR Inten    --      0.0000                 0.9354                 0.0000
  Atom  AN      X      Y      Z        X      Y      Z        X      Y      Z
     1   6     0.00   0.00  -0.14    -0.14  -0.10  -0.00     0.05   0.09  -0.00
     2   6    -0.00  -0.00   0.08    -0.11   0.15   0.00     0.06  -0.19  -0.00
     3   6    -0.00  -0.00   0.11    -0.02   0.12   0.00     0.05  -0.16   0.00
     4   6    -0.00  -0.00  -0.00    -0.00   0.08   0.00     0.00  -0.16  -0.00
     5   6    -0.00   0.00  -0.00     0.00  -0.17  -0.00    -0.00   0.12  -0.00
     6   6    -0.00  -0.00   0.15    -0.17  -0.13  -0.00     0.08   0.13   0.00
     7   6     0.00   0.00  -0.11     0.02   0.12   0.00     0.04   0.16   0.00
     8   6     0.00   0.00  -0.11     0.02   0.12   0.00    -0.04  -0.16   0.00
     9   6    -0.00  -0.00   0.11    -0.02   0.11   0.00    -0.05   0.16   0.00
    10   6     0.00  -0.00  -0.00    -0.00   0.08   0.00    -0.00   0.16  -0.00
    11   6    -0.00  -0.00   0.08    -0.11   0.15   0.00    -0.06   0.19   0.00
    12   6     0.00   0.00  -0.08     0.11   0.16   0.00    -0.06  -0.19  -0.00
    13   6    -0.00  -0.00   0.14     0.15  -0.09   0.00    -0.06   0.09  -0.00
    14   6     0.00   0.00  -0.15     0.18  -0.13  -0.00    -0.09   0.12   0.00
    15   1     0.00   0.00  -0.23     0.18  -0.01  -0.00    -0.08   0.06   0.00
    16   1    -0.00  -0.00   0.37    -0.01  -0.19   0.00     0.10   0.18   0.00
    17   1     0.00   0.00  -0.37     0.02  -0.19  -0.00    -0.11   0.18  -0.00
    18   1    -0.00  -0.00   0.23    -0.18  -0.02  -0.00     0.08   0.06   0.00
    19   6     0.00   0.00  -0.08     0.11   0.16   0.00     0.06   0.19   0.00
    20   6    -0.00  -0.00   0.14     0.15  -0.09  -0.00     0.06  -0.09  -0.00
    21   6     0.00   0.00  -0.15     0.18  -0.13  -0.00     0.09  -0.12   0.00
    22   6     0.00   0.00  -0.00     0.00  -0.17  -0.00     0.00  -0.12  -0.00
    23   1    -0.00  -0.00   0.37    -0.01  -0.19  -0.00    -0.10  -0.18  -0.00
    24   1     0.00   0.00  -0.23     0.18  -0.01  -0.00     0.08  -0.06   0.00
    25   6     0.00   0.00  -0.14    -0.14  -0.10  -0.00    -0.05  -0.09  -0.00
    26   1     0.00   0.00  -0.37     0.02  -0.19  -0.00     0.11  -0.18  -0.00
    27   6    -0.00  -0.00   0.15    -0.17  -0.13  -0.00    -0.08  -0.13   0.00
    28   1    -0.00  -0.00   0.23    -0.18  -0.02  -0.00    -0.08  -0.06   0.00
    29   1    -0.00  -0.00   0.05    -0.04   0.19   0.00    -0.07  -0.27  -0.00
    30   1     0.00  -0.00  -0.05     0.03   0.19   0.00    -0.08   0.26   0.00
    31   1     0.00   0.00  -0.05     0.03   0.19   0.00     0.08  -0.26   0.00
    32   1    -0.00  -0.00   0.05    -0.04   0.19   0.00     0.07   0.27   0.00
                     19                     20                     21
                      A                      A                      A
 Frequencies --    556.2270               564.4146               591.5092
 Red. masses --      6.5434                 3.9171                 5.8899
 Frc consts  --      1.1928                 0.7352                 1.2142
 IR Inten    --      0.0000                 9.9495                 3.2358
  Atom  AN      X      Y      Z        X      Y      Z        X      Y      Z
     1   6     0.03   0.21   0.00     0.00   0.00   0.07     0.08   0.13  -0.00
     2   6     0.02   0.19   0.00     0.00  -0.00   0.01     0.07   0.19   0.00
     3   6     0.04   0.12   0.00     0.00  -0.00  -0.14     0.08   0.10   0.00
     4   6     0.05   0.00   0.00    -0.00  -0.00   0.15    -0.06  -0.00  -0.00
     5   6     0.10   0.00   0.00    -0.00   0.00   0.21    -0.16  -0.00  -0.00
     6   6     0.01   0.15   0.00     0.00   0.00  -0.09    -0.14  -0.01   0.00
     7   6    -0.04   0.12   0.00     0.00   0.00  -0.14     0.08  -0.10  -0.00
     8   6     0.04  -0.12  -0.00     0.00  -0.00  -0.14     0.08  -0.10   0.00
     9   6    -0.04  -0.12  -0.00     0.00   0.00  -0.14     0.08   0.10   0.00
    10   6    -0.05  -0.00  -0.00    -0.00   0.00   0.15    -0.06  -0.00  -0.00
    11   6    -0.02  -0.19  -0.00    -0.00   0.00   0.01     0.07   0.19   0.00
    12   6     0.02  -0.19  -0.00    -0.00  -0.00   0.01     0.07  -0.18  -0.00
    13   6     0.04  -0.21  -0.00    -0.00   0.00   0.07     0.09  -0.13   0.00
    14   6     0.02  -0.15  -0.00    -0.00   0.00  -0.09    -0.14   0.00  -0.00
    15   1     0.03  -0.22  -0.00     0.00   0.00  -0.43    -0.14   0.16  -0.00
    16   1     0.08  -0.19   0.00     0.00   0.00   0.01     0.25  -0.03   0.00
    17   1     0.07   0.19  -0.00    -0.00   0.00   0.01     0.24   0.04  -0.00
    18   1     0.02   0.22   0.00     0.00   0.00  -0.43    -0.13  -0.16   0.00
    19   6    -0.02   0.19   0.00     0.00   0.00   0.01     0.07  -0.18  -0.00
    20   6    -0.04   0.21   0.00     0.00  -0.00   0.07     0.09  -0.12  -0.00
    21   6    -0.02   0.15   0.00     0.00  -0.00  -0.09    -0.14   0.00   0.00
    22   6    -0.10  -0.00  -0.00    -0.00  -0.00   0.21    -0.16  -0.00  -0.00
    23   1    -0.08   0.19   0.00    -0.00  -0.00   0.01     0.25  -0.03  -0.00
    24   1    -0.03   0.22   0.00     0.00   0.00  -0.43    -0.14   0.16   0.00
    25   6    -0.03  -0.21  -0.00    -0.00  -0.00   0.07     0.08   0.13   0.00
    26   1    -0.07  -0.19  -0.00     0.00  -0.00   0.01     0.24   0.04   0.00
    27   6    -0.01  -0.15  -0.00    -0.00  -0.00  -0.09    -0.14  -0.01  -0.00
    28   1    -0.02  -0.22  -0.00     0.00   0.00  -0.43    -0.14  -0.16  -0.00
    29   1    -0.02   0.18   0.00    -0.00  -0.00  -0.01     0.05   0.18   0.00
    30   1     0.01   0.18   0.00    -0.00   0.00  -0.01     0.05  -0.18  -0.00
    31   1    -0.01  -0.18  -0.00     0.00  -0.00  -0.01     0.05  -0.18  -0.00
    32   1     0.02  -0.18  -0.00     0.00   0.00  -0.01     0.05   0.18   0.00
                     22                     23                     24
                      A                      A                      A
 Frequencies --    638.2125               642.7954               662.8985
 Red. masses --      7.6988                 3.7200                 2.0665
 Frc consts  --      1.8476                 0.9056                 0.5350
 IR Inten    --      0.0000                 0.0000                 0.0000
  Atom  AN      X      Y      Z        X      Y      Z        X      Y      Z
     1   6    -0.03   0.11   0.00     0.00  -0.00  -0.12     0.00   0.00  -0.06
     2   6     0.03   0.07   0.00    -0.00  -0.00   0.12    -0.00  -0.00   0.02
     3   6     0.23  -0.05   0.00    -0.00   0.00  -0.15     0.00   0.00  -0.14
     4   6     0.00  -0.18  -0.00     0.00   0.00  -0.00     0.00  -0.00  -0.00
     5   6     0.00  -0.13  -0.00     0.00   0.00  -0.00     0.00   0.00  -0.00
     6   6    -0.23  -0.02  -0.00     0.00  -0.00   0.10    -0.00   0.00   0.02
     7   6     0.23   0.06   0.00    -0.00   0.00  -0.15    -0.00  -0.00   0.14
     8   6    -0.23  -0.06  -0.00    -0.00  -0.00   0.15    -0.00  -0.00   0.14
     9   6    -0.23   0.05  -0.00    -0.00  -0.00   0.15     0.00   0.00  -0.14
    10   6    -0.00   0.18   0.00     0.00  -0.00  -0.00    -0.00  -0.00   0.00
    11   6    -0.03  -0.07  -0.00     0.00   0.00  -0.12     0.00  -0.00   0.02
    12   6    -0.04   0.07  -0.00     0.00   0.00  -0.12     0.00   0.00  -0.02
    13   6     0.02   0.11   0.00    -0.00  -0.00   0.12    -0.00  -0.00   0.06
    14   6     0.23  -0.01   0.00     0.00   0.00  -0.10     0.00   0.00  -0.02
    15   1     0.23  -0.02  -0.00     0.00  -0.00  -0.17     0.00   0.00  -0.20
    16   1    -0.13   0.02   0.00    -0.00  -0.00   0.20     0.00   0.00  -0.11
    17   1     0.13   0.03   0.00    -0.00   0.00  -0.20    -0.00  -0.00   0.11
    18   1    -0.23  -0.03  -0.00     0.00   0.00   0.18    -0.00  -0.00   0.20
    19   6     0.04  -0.07  -0.00    -0.00  -0.00   0.12     0.00   0.00  -0.02
    20   6    -0.02  -0.11  -0.00    -0.00   0.00  -0.12    -0.00  -0.00   0.06
    21   6    -0.23   0.01  -0.00     0.00  -0.00   0.10     0.00   0.00  -0.02
    22   6    -0.00   0.13   0.00     0.00  -0.00  -0.00    -0.00   0.00   0.00
    23   1     0.13  -0.02   0.00    -0.00   0.00  -0.20     0.00   0.00  -0.11
    24   1    -0.23   0.02  -0.00     0.00  -0.00   0.18     0.00   0.00  -0.20
    25   6     0.03  -0.11  -0.00    -0.00  -0.00   0.12     0.00   0.00  -0.06
    26   1    -0.13  -0.03  -0.00    -0.00  -0.00   0.20    -0.00  -0.00   0.11
    27   6     0.23   0.02   0.00     0.00   0.00  -0.10    -0.00  -0.00   0.02
    28   1     0.23   0.03   0.00     0.00   0.00  -0.18    -0.00  -0.00   0.20
    29   1    -0.16  -0.04  -0.00    -0.00  -0.00   0.34    -0.00  -0.00   0.41
    30   1    -0.17   0.03   0.00    -0.00  -0.00   0.34     0.00   0.00  -0.41
    31   1     0.17  -0.03   0.00     0.00   0.00  -0.34     0.00   0.00  -0.41
    32   1     0.16   0.04   0.00     0.00   0.00  -0.34    -0.00  -0.00   0.41
                     25                     26                     27
                      A                      A                      A
 Frequencies --    670.8848               767.2733               780.4118
 Red. masses --      3.8316                 1.1859                 1.4270
 Frc consts  --      1.0161                 0.4113                 0.5120
 IR Inten    --      0.0000                 0.0003                 0.0000
  Atom  AN      X      Y      Z        X      Y      Z        X      Y      Z
     1   6     0.00   0.00  -0.08    -0.00  -0.00   0.04     0.00   0.00  -0.04
     2   6    -0.00  -0.00   0.04    -0.00   0.00   0.02     0.00   0.00  -0.04
     3   6    -0.00  -0.00   0.15    -0.00   0.00  -0.02     0.00   0.00  -0.03
     4   6    -0.00  -0.00   0.03    -0.00  -0.00   0.00    -0.00  -0.00   0.10
     5   6     0.00   0.00  -0.25     0.00   0.00  -0.00    -0.00  -0.00   0.02
     6   6    -0.00  -0.00   0.07    -0.00  -0.00   0.04    -0.00   0.00  -0.03
     7   6     0.00   0.00  -0.15    -0.00   0.00  -0.02    -0.00  -0.00   0.03
     8   6    -0.00  -0.00   0.15    -0.00  -0.00   0.02     0.00   0.00  -0.03
     9   6     0.00   0.00  -0.15    -0.00  -0.00   0.02    -0.00  -0.00   0.03
    10   6     0.00   0.00  -0.03    -0.00   0.00   0.00     0.00   0.00  -0.10
    11   6     0.00   0.00  -0.04     0.00   0.00  -0.02    -0.00  -0.00   0.04
    12   6    -0.00  -0.00   0.04     0.00  -0.00  -0.02     0.00   0.00  -0.04
    13   6     0.00   0.00  -0.08     0.00   0.00  -0.04     0.00   0.00  -0.04
    14   6    -0.00  -0.00   0.07     0.00   0.00  -0.04     0.00   0.00  -0.03
    15   1    -0.00  -0.00   0.43    -0.00  -0.00   0.33    -0.00  -0.00   0.21
    16   1     0.00   0.00  -0.02    -0.00  -0.00   0.31    -0.00  -0.00   0.30
    17   1    -0.00   0.00  -0.02     0.00   0.00  -0.31    -0.00  -0.00   0.30
    18   1    -0.00  -0.00   0.43     0.00   0.00  -0.33    -0.00  -0.00   0.20
    19   6     0.00   0.00  -0.04    -0.00  -0.00   0.02    -0.00  -0.00   0.04
    20   6    -0.00  -0.00   0.08    -0.00  -0.00   0.04    -0.00  -0.00   0.04
    21   6     0.00   0.00  -0.07    -0.00  -0.00   0.04     0.00  -0.00   0.03
    22   6    -0.00  -0.00   0.25     0.00  -0.00  -0.00     0.00   0.00  -0.02
    23   1     0.00  -0.00   0.02     0.00   0.00  -0.31     0.00   0.00  -0.30
    24   1     0.00   0.00  -0.43     0.00   0.00  -0.33     0.00   0.00  -0.20
    25   6    -0.00  -0.00   0.08     0.00   0.00  -0.04    -0.00  -0.00   0.04
    26   1    -0.00  -0.00   0.02    -0.00  -0.00   0.31     0.00   0.00  -0.30
    27   6     0.00   0.00  -0.07     0.00   0.00  -0.04    -0.00  -0.00   0.03
    28   1     0.00   0.00  -0.43    -0.00  -0.00   0.33     0.00   0.00  -0.21
    29   1     0.00   0.00  -0.06     0.00   0.00  -0.21    -0.00  -0.00   0.33
    30   1    -0.00  -0.00   0.06     0.00   0.00  -0.21     0.00   0.00  -0.33
    31   1     0.00   0.00  -0.06    -0.00  -0.00   0.21    -0.00  -0.00   0.33
    32   1    -0.00  -0.00   0.06    -0.00  -0.00   0.21     0.00   0.00  -0.33
                     28                     29                     30
                      A                      A                      A
 Frequencies --    783.0788               788.0854               792.9240
 Red. masses --      1.6073                 5.8528                 1.8938
 Frc consts  --      0.5807                 2.1417                 0.7015
 IR Inten    --      0.0000                 2.7266               110.4909
  Atom  AN      X      Y      Z        X      Y      Z        X      Y      Z
     1   6    -0.00  -0.00   0.03     0.10   0.16   0.00     0.00   0.00  -0.07
     2   6    -0.00   0.00   0.04     0.09   0.04   0.00     0.00  -0.00   0.01
     3   6     0.00   0.00  -0.09     0.08  -0.05   0.00     0.00   0.00  -0.06
     4   6     0.00  -0.00  -0.00     0.00  -0.14  -0.00    -0.00  -0.00   0.15
     5   6     0.00  -0.00  -0.00     0.00  -0.11  -0.00     0.00   0.00  -0.04
     6   6    -0.00  -0.00   0.06    -0.20  -0.02  -0.00    -0.00   0.00  -0.01
     7   6    -0.00  -0.00   0.09    -0.08  -0.05  -0.00     0.00   0.00  -0.06
     8   6    -0.00  -0.00   0.09    -0.08  -0.05  -0.00     0.00   0.00  -0.06
     9   6     0.00   0.00  -0.09     0.08  -0.05  -0.00     0.00   0.00  -0.06
    10   6    -0.00  -0.00   0.00     0.00  -0.14  -0.00    -0.00  -0.00   0.15
    11   6    -0.00  -0.00   0.04     0.09   0.04   0.00    -0.00  -0.00   0.01
    12   6     0.00  -0.00  -0.04    -0.10   0.03  -0.00    -0.00  -0.00   0.01
    13   6     0.00   0.00  -0.03    -0.10   0.16   0.00     0.00   0.00  -0.07
    14   6     0.00   0.00  -0.06     0.20  -0.01   0.00     0.00   0.00  -0.01
    15   1    -0.00  -0.00   0.35     0.20  -0.14  -0.00    -0.00  -0.00   0.29
    16   1    -0.00  -0.00   0.32    -0.27   0.06  -0.00    -0.00  -0.00   0.28
    17   1     0.00   0.00  -0.32     0.27   0.07  -0.00    -0.00  -0.00   0.28
    18   1     0.00   0.00  -0.35    -0.20  -0.15  -0.00    -0.00  -0.00   0.29
    19   6     0.00   0.00  -0.04    -0.10   0.03  -0.00     0.00  -0.00   0.01
    20   6     0.00   0.00  -0.03    -0.10   0.16   0.00     0.00   0.00  -0.07
    21   6     0.00   0.00  -0.06     0.20  -0.01   0.00    -0.00   0.00  -0.01
    22   6    -0.00  -0.00   0.00     0.00  -0.11  -0.00     0.00   0.00  -0.04
    23   1    -0.00  -0.00   0.32    -0.27   0.06   0.00    -0.00  -0.00   0.28
    24   1    -0.00  -0.00   0.35     0.20  -0.14   0.00    -0.00  -0.00   0.29
    25   6    -0.00  -0.00   0.03     0.10   0.16   0.00     0.00   0.00  -0.07
    26   1     0.00   0.00  -0.32     0.27   0.07   0.00    -0.00  -0.00   0.28
    27   6    -0.00  -0.00   0.06    -0.20  -0.02  -0.00     0.00   0.00  -0.01
    28   1     0.00   0.00  -0.35    -0.20  -0.15  -0.00    -0.00  -0.00   0.29
    29   1     0.00   0.00  -0.12    -0.04  -0.03  -0.00    -0.00  -0.00   0.26
    30   1    -0.00  -0.00   0.12     0.04  -0.03   0.00    -0.00  -0.00   0.26
    31   1    -0.00  -0.00   0.12     0.04  -0.03  -0.00    -0.00  -0.00   0.26
    32   1     0.00   0.00  -0.12    -0.04  -0.03   0.00    -0.00  -0.00   0.26
                     31                     32                     33
                      A                      A                      A
 Frequencies --    806.4267               812.2479               830.3421
 Red. masses --      5.2107                 5.4287                 6.7277
 Frc consts  --      1.9965                 2.1102                 2.7329
 IR Inten    --      8.8357                 0.0000                 7.2786
  Atom  AN      X      Y      Z        X      Y      Z        X      Y      Z
     1   6     0.07   0.17   0.00     0.09   0.18   0.00    -0.09  -0.08  -0.00
     2   6     0.08  -0.18  -0.00     0.08  -0.16  -0.00     0.00  -0.07  -0.00
     3   6    -0.01  -0.09  -0.00     0.01  -0.10  -0.00     0.23  -0.09  -0.00
     4   6    -0.06  -0.00  -0.00    -0.04  -0.00  -0.00     0.18   0.00   0.00
     5   6    -0.08  -0.00  -0.00    -0.10  -0.00  -0.00    -0.05  -0.00   0.00
     6   6    -0.05   0.08   0.00    -0.07   0.07   0.00    -0.17  -0.08  -0.00
     7   6    -0.01   0.09   0.00    -0.01  -0.10  -0.00     0.22   0.09   0.00
     8   6    -0.01   0.09   0.00     0.01   0.10   0.00     0.22   0.09   0.00
     9   6    -0.01  -0.09  -0.00    -0.01   0.10   0.00     0.23  -0.09   0.00
    10   6    -0.06  -0.00  -0.00     0.04   0.00   0.00     0.18   0.00   0.00
    11   6     0.08  -0.18  -0.00    -0.08   0.16   0.00     0.00  -0.07  -0.00
    12   6     0.07   0.18   0.00     0.08   0.17   0.00    -0.00   0.07   0.00
    13   6     0.07  -0.17  -0.00     0.10  -0.18  -0.00    -0.09   0.08  -0.00
    14   6    -0.05  -0.08  -0.00    -0.07  -0.07  -0.00    -0.17   0.07  -0.00
    15   1    -0.05   0.04   0.00    -0.07   0.10   0.00    -0.18   0.08   0.00
    16   1    -0.06  -0.25  -0.00    -0.01  -0.24   0.00     0.00   0.14   0.00
    17   1    -0.07   0.25  -0.00    -0.02   0.24  -0.00     0.01  -0.14  -0.00
    18   1    -0.05  -0.04  -0.00    -0.07  -0.10  -0.00    -0.18  -0.09  -0.00
    19   6     0.07   0.18   0.00    -0.08  -0.17  -0.00    -0.00   0.07   0.00
    20   6     0.07  -0.17  -0.00    -0.10   0.18   0.00    -0.09   0.08   0.00
    21   6    -0.05  -0.08  -0.00     0.07   0.07   0.00    -0.17   0.07   0.00
    22   6    -0.08  -0.00  -0.00     0.10   0.00   0.00    -0.05  -0.00   0.00
    23   1    -0.06  -0.25  -0.00     0.01   0.24   0.00     0.00   0.14   0.00
    24   1    -0.05   0.04  -0.00     0.07  -0.10   0.00    -0.18   0.08  -0.00
    25   6     0.07   0.17   0.00    -0.09  -0.18  -0.00    -0.09  -0.08  -0.00
    26   1    -0.07   0.25   0.00     0.02  -0.24  -0.00     0.01  -0.14   0.00
    27   6    -0.05   0.08   0.00     0.07  -0.07  -0.00    -0.17  -0.08  -0.00
    28   1    -0.05  -0.04   0.00     0.07   0.10   0.00    -0.18  -0.08   0.00
    29   1    -0.09  -0.28  -0.00    -0.09  -0.26  -0.00    -0.17  -0.18   0.00
    30   1    -0.10   0.27   0.00     0.10  -0.26  -0.00    -0.18   0.17   0.00
    31   1    -0.10   0.27   0.00    -0.10   0.26   0.00    -0.18   0.17  -0.00
    32   1    -0.09  -0.28  -0.00     0.09   0.26   0.00    -0.17  -0.18  -0.00
                     34                     35                     36
                      A                      A                      A
 Frequencies --    837.3833               887.3317               892.9135
 Red. masses --      2.7047                 5.7276                 1.5320
 Frc consts  --      1.1174                 2.6570                 0.7197
 IR Inten    --     64.9320                 0.0000                 0.0000
  Atom  AN      X      Y      Z        X      Y      Z        X      Y      Z
     1   6     0.00   0.00  -0.00    -0.00  -0.00   0.00     0.00   0.00  -0.01
     2   6     0.00   0.00  -0.08     0.00   0.00  -0.06    -0.00  -0.00   0.09
     3   6    -0.00  -0.00   0.07    -0.00  -0.00   0.20     0.00   0.00  -0.05
     4   6     0.00   0.00  -0.12     0.00   0.00  -0.25    -0.00  -0.00   0.00
     5   6    -0.00  -0.00   0.17    -0.00  -0.00   0.20    -0.00  -0.00  -0.00
     6   6     0.00   0.00  -0.07     0.00   0.00  -0.10     0.00   0.00  -0.04
     7   6    -0.00  -0.00   0.07     0.00   0.00  -0.20    -0.00  -0.00   0.05
     8   6    -0.00  -0.00   0.07    -0.00  -0.00   0.20    -0.00  -0.00   0.05
     9   6    -0.00  -0.00   0.07     0.00   0.00  -0.20     0.00   0.00  -0.05
    10   6     0.00   0.00  -0.12    -0.00  -0.00   0.25     0.00   0.00  -0.00
    11   6     0.00   0.00  -0.08    -0.00  -0.00   0.06    -0.00  -0.00   0.09
    12   6     0.00   0.00  -0.08     0.00   0.00  -0.06     0.00   0.00  -0.09
    13   6     0.00  -0.00  -0.00     0.00  -0.00   0.00     0.00  -0.00   0.01
    14   6     0.00   0.00  -0.07     0.00   0.00  -0.10    -0.00  -0.00   0.04
    15   1    -0.00  -0.00   0.11    -0.00  -0.00   0.24     0.00   0.00  -0.29
    16   1    -0.00  -0.00   0.34    -0.00  -0.00   0.29     0.00   0.00  -0.03
    17   1    -0.00  -0.00   0.34    -0.00  -0.00   0.29     0.00  -0.00   0.03
    18   1    -0.00  -0.00   0.11    -0.00  -0.00   0.24    -0.00  -0.00   0.29
    19   6     0.00   0.00  -0.08    -0.00  -0.00   0.06     0.00   0.00  -0.09
    20   6     0.00   0.00  -0.00     0.00   0.00  -0.00    -0.00  -0.00   0.01
    21   6     0.00   0.00  -0.07    -0.00  -0.00   0.10    -0.00  -0.00   0.04
    22   6    -0.00  -0.00   0.17     0.00   0.00  -0.20     0.00  -0.00   0.00
    23   1    -0.00  -0.00   0.34     0.00   0.00  -0.29    -0.00   0.00  -0.03
    24   1    -0.00  -0.00   0.11     0.00   0.00  -0.24     0.00   0.00  -0.29
    25   6     0.00   0.00  -0.00    -0.00   0.00  -0.00    -0.00   0.00  -0.01
    26   1    -0.00  -0.00   0.34     0.00   0.00  -0.29    -0.00  -0.00   0.03
    27   6     0.00   0.00  -0.07    -0.00  -0.00   0.10     0.00   0.00  -0.04
    28   1    -0.00  -0.00   0.11     0.00   0.00  -0.24    -0.00  -0.00   0.29
    29   1    -0.00  -0.00   0.29    -0.00  -0.00   0.00     0.00   0.00  -0.39
    30   1    -0.00  -0.00   0.29     0.00  -0.00  -0.00    -0.00  -0.00   0.39
    31   1    -0.00  -0.00   0.29     0.00  -0.00   0.00    -0.00  -0.00   0.39
    32   1    -0.00  -0.00   0.29    -0.00  -0.00  -0.00     0.00   0.00  -0.39
                     37                     38                     39
                      A                      A                      A
 Frequencies --    911.9447               922.1643               930.3992
 Red. masses --      1.3306                 1.6546                 1.4477
 Frc consts  --      0.6520                 0.8290                 0.7384
 IR Inten    --      0.0001                 0.0000                 0.2844
  Atom  AN      X      Y      Z        X      Y      Z        X      Y      Z
     1   6    -0.00  -0.00   0.00    -0.00  -0.00   0.03    -0.00  -0.00   0.01
     2   6    -0.00  -0.00   0.07     0.00   0.00  -0.08     0.00   0.00  -0.06
     3   6     0.00   0.00  -0.02    -0.00  -0.00   0.06     0.00   0.00   0.01
     4   6     0.00   0.00   0.00     0.00   0.00  -0.01    -0.00  -0.00   0.02
     5   6     0.00  -0.00  -0.00     0.00   0.00  -0.04     0.00   0.00  -0.05
     6   6    -0.00   0.00  -0.05    -0.00  -0.00   0.05    -0.00  -0.00   0.07
     7   6     0.00   0.00  -0.02     0.00   0.00  -0.06     0.00  -0.00   0.01
     8   6     0.00  -0.00   0.02    -0.00  -0.00   0.06    -0.00  -0.00   0.01
     9   6     0.00  -0.00   0.02     0.00   0.00  -0.06    -0.00  -0.00   0.01
    10   6     0.00  -0.00   0.00    -0.00  -0.00   0.01    -0.00  -0.00   0.02
    11   6     0.00   0.00  -0.07    -0.00  -0.00   0.08     0.00   0.00  -0.06
    12   6     0.00   0.00  -0.07     0.00   0.00  -0.08     0.00   0.00  -0.06
    13   6    -0.00   0.00  -0.00    -0.00  -0.00   0.03     0.00  -0.00   0.01
    14   6    -0.00  -0.00   0.05    -0.00  -0.00   0.05    -0.00  -0.00   0.06
    15   1     0.00   0.00  -0.29     0.00   0.00  -0.29     0.00   0.00  -0.32
    16   1    -0.00  -0.00   0.05     0.00   0.00  -0.12     0.00   0.00  -0.05
    17   1     0.00   0.00  -0.05     0.00   0.00  -0.12     0.00   0.00  -0.04
    18   1    -0.00  -0.00   0.29     0.00   0.00  -0.29     0.00   0.00  -0.32
    19   6    -0.00  -0.00   0.07    -0.00  -0.00   0.08     0.00   0.00  -0.06
    20   6    -0.00   0.00   0.00     0.00   0.00  -0.03    -0.00   0.00   0.01
    21   6    -0.00   0.00  -0.05     0.00   0.00  -0.05    -0.00  -0.00   0.07
    22   6     0.00   0.00  -0.00    -0.00  -0.00   0.04     0.00   0.00  -0.05
    23   1     0.00   0.00  -0.05    -0.00  -0.00   0.12     0.00   0.00  -0.04
    24   1    -0.00  -0.00   0.29    -0.00  -0.00   0.29     0.00   0.00  -0.32
    25   6    -0.00  -0.00  -0.00     0.00   0.00  -0.03    -0.00   0.00   0.01
    26   1    -0.00  -0.00   0.05    -0.00  -0.00   0.12     0.00   0.00  -0.05
    27   6    -0.00  -0.00   0.05     0.00   0.00  -0.05    -0.00  -0.00   0.06
    28   1     0.00   0.00  -0.29    -0.00  -0.00   0.29     0.00   0.00  -0.32
    29   1     0.00   0.00  -0.39    -0.00  -0.00   0.37    -0.00  -0.00   0.37
    30   1     0.00   0.00  -0.39     0.00   0.00  -0.37    -0.00  -0.00   0.37
    31   1    -0.00  -0.00   0.39    -0.00  -0.00   0.37    -0.00  -0.00   0.37
    32   1    -0.00  -0.00   0.39     0.00   0.00  -0.37    -0.00  -0.00   0.37
                     40                     41                     42
                      A                      A                      A
 Frequencies --    969.3147               978.8865               984.6425
 Red. masses --      5.7708                 1.3031                 1.3003
 Frc consts  --      3.1946                 0.7357                 0.7428
 IR Inten    --      0.0000                 0.0000                 0.0000
  Atom  AN      X      Y      Z        X      Y      Z        X      Y      Z
     1   6    -0.11  -0.12  -0.00     0.00   0.00  -0.07    -0.00  -0.00   0.06
     2   6    -0.07   0.08   0.00    -0.00  -0.00   0.02     0.00   0.00  -0.03
     3   6     0.20  -0.01   0.00     0.00  -0.00   0.00     0.00  -0.00  -0.00
     4   6     0.00  -0.06  -0.00     0.00  -0.00  -0.00    -0.00   0.00   0.00
     5   6    -0.00   0.04   0.00     0.00  -0.00   0.00     0.00   0.00  -0.00
     6   6     0.16   0.03   0.00    -0.00  -0.00   0.04     0.00   0.00  -0.04
     7   6     0.20   0.02   0.00    -0.00  -0.00  -0.00     0.00   0.00  -0.00
     8   6    -0.20  -0.02  -0.00     0.00   0.00  -0.00     0.00   0.00   0.00
     9   6    -0.20   0.01  -0.00    -0.00   0.00   0.00     0.00  -0.00   0.00
    10   6    -0.00   0.06   0.00    -0.00  -0.00   0.00    -0.00  -0.00  -0.00
    11   6     0.07  -0.08  -0.00    -0.00  -0.00   0.02    -0.00  -0.00   0.03
    12   6     0.07   0.09   0.00     0.00   0.00  -0.02    -0.00  -0.00   0.03
    13   6     0.11  -0.12  -0.00    -0.00  -0.00   0.07     0.00   0.00  -0.06
    14   6    -0.17   0.02  -0.00     0.00   0.00  -0.04    -0.00  -0.00   0.04
    15   1    -0.17   0.22   0.00    -0.00  -0.00   0.26     0.00   0.00  -0.23
    16   1     0.19  -0.07   0.00     0.00   0.00  -0.39    -0.00  -0.00   0.38
    17   1    -0.19  -0.08  -0.00    -0.00  -0.00   0.40     0.00   0.00  -0.38
    18   1     0.16   0.23   0.00     0.00   0.00  -0.27    -0.00  -0.00   0.23
[...]
   -> Intensity =  1884.     (DipStr = 0.1054    )

 Energy =   1619.0875 cm^-1: |0> -> |78^1>
   -> Intensity =  5795.     (DipStr = 0.3213    )

 Energy =   1664.1901 cm^-1: |0> -> |59^1;9^1>
   -> Intensity =  2837.     (DipStr = 0.1568    )

 Energy =   1975.4925 cm^-1: |0> -> |78^1;9^1>
   -> Intensity =  2580.     (DipStr = 0.1407    )

 Energy =   2926.8727 cm^-1: |0> -> |78^1;59^1>
   -> Intensity =  1868.     (DipStr = 0.9759E-01)

     ==================================================
                       Final Spectrum
     ==================================================

 Band broadening simulated by mean of Gaussian functions with
 Half-Widths at Half-Maximum of  400.00 cm^(-1)
 
 Legend:
 -------
 1st col.: Energy (in cm^-1)
 2nd col.: Intensity at T=0K
 Intensity: Molar absorption coefficient (in dm^3.mol^-1.cm^-1)
 -----------------------------
    19251.0563    0.275390D+03
    19271.0563    0.327437D+03
    19291.0563    0.387771D+03
    19311.0563    0.457657D+03
    19331.0563    0.538299D+03
    19351.0563    0.631006D+03
    19371.0563    0.737162D+03
    19391.0563    0.858732D+03
    19411.0563    0.996459D+03
    19431.0563    0.115238D+04
    19451.0563    0.132819D+04
    19471.0563    0.152569D+04
    19491.0563    0.174668D+04
    19511.0563    0.199293D+04
    19531.0563    0.226628D+04
    19551.0563    0.256881D+04
    19571.0563    0.290173D+04
    19591.0563    0.326688D+04
    19611.0563    0.366580D+04
    19631.0563    0.409988D+04
    19651.0563    0.457021D+04
    19671.0563    0.507770D+04
    19691.0563    0.562305D+04
    19711.0563    0.620665D+04
    19731.0563    0.682853D+04
    19751.0563    0.748858D+04
    19771.0563    0.818578D+04
    19791.0563    0.891914D+04
    19811.0563    0.968715D+04
    19831.0563    0.104880D+05
    19851.0563    0.113190D+05
    19871.0563    0.121775D+05
    19891.0563    0.130602D+05
    19911.0563    0.139636D+05
    19931.0563    0.148834D+05
    19951.0563    0.158153D+05
    19971.0563    0.167549D+05
    19991.0563    0.176968D+05
    20011.0563    0.186361D+05
    20031.0563    0.195673D+05
    20051.0563    0.204853D+05
    20071.0563    0.213844D+05
    20091.0563    0.222594D+05
    20111.0563    0.231050D+05
    20131.0563    0.239161D+05
    20151.0563    0.246892D+05
    20171.0563    0.254176D+05
    20191.0563    0.260981D+05
    20211.0563    0.267270D+05
    20231.0563    0.273012D+05
    20251.0563    0.278180D+05
    20271.0563    0.282745D+05
    20291.0563    0.286695D+05
    20311.0563    0.290016D+05
    20331.0563    0.292704D+05
    20351.0563    0.294756D+05
    20371.0563    0.296178D+05
    20391.0563    0.296980D+05
    20411.0563    0.297175D+05
    20431.0563    0.296782D+05
    20451.0563    0.295835D+05
    20471.0563    0.294343D+05
    20491.0563    0.292343D+05
    20511.0563    0.289875D+05
    20531.0563    0.286964D+05
    20551.0563    0.283652D+05
    20571.0563    0.279976D+05
    20591.0563    0.275979D+05
    20611.0563    0.271700D+05
    20631.0563    0.267178D+05
    20651.0563    0.262456D+05
    20671.0563    0.257574D+05
    20691.0563    0.252574D+05
    20711.0563    0.247494D+05
    20731.0563    0.242372D+05
    20751.0563    0.237247D+05
    20771.0563    0.232154D+05
    20791.0563    0.227131D+05
    20811.0563    0.222212D+05
    20831.0563    0.217424D+05
    20851.0563    0.212800D+05
    20871.0563    0.208371D+05
    20891.0563    0.204163D+05
    20911.0563    0.200200D+05
    20931.0563    0.196507D+05
    20951.0563    0.193106D+05
    20971.0563    0.190015D+05
    20991.0563    0.187252D+05
    21011.0563    0.184835D+05
    21031.0563    0.182772D+05
    21051.0563    0.181077D+05
    21071.0563    0.179756D+05
    21091.0563    0.178816D+05
    21111.0563    0.178258D+05
    21131.0563    0.178083D+05
    21151.0563    0.178288D+05
    21171.0563    0.178868D+05
    21191.0563    0.179814D+05
    21211.0563    0.181114D+05
    21231.0563    0.182756D+05
    21251.0563    0.184721D+05
    21271.0563    0.186992D+05
    21291.0563    0.189546D+05
    21311.0563    0.192358D+05
    21331.0563    0.195404D+05
    21351.0563    0.198654D+05
    21371.0563    0.202080D+05
    21391.0563    0.205648D+05
    21411.0563    0.209328D+05
    21431.0563    0.213085D+05
    21451.0563    0.216888D+05
    21471.0563    0.220699D+05
    21491.0563    0.224485D+05
    21511.0563    0.228212D+05
    21531.0563    0.231848D+05
    21551.0563    0.235361D+05
    21571.0563    0.238718D+05
    21591.0563    0.241891D+05
    21611.0563    0.244851D+05
    21631.0563    0.247574D+05
    21651.0563    0.250035D+05
    21671.0563    0.252182D+05
    21691.0563    0.254067D+05
    21711.0563    0.255635D+05
    21731.0563    0.256871D+05
    21751.0563    0.257767D+05
    21771.0563    0.258319D+05
    21791.0563    0.258516D+05
    21811.0563    0.258360D+05
    21831.0563    0.257851D+05
    21851.0563    0.256994D+05
    21871.0563    0.255795D+05
    21891.0563    0.254262D+05
    21911.0563    0.252407D+05
    21931.0563    0.250242D+05
    21951.0563    0.247783D+05
    21971.0563    0.245045D+05
    21991.0563    0.242048D+05
    22011.0563    0.238794D+05
    22031.0563    0.235341D+05
    22051.0563    0.231688D+05
    22071.0563    0.227859D+05
    22091.0563    0.223874D+05
    22111.0563    0.219759D+05
    22131.0563    0.215538D+05
    22151.0563    0.211230D+05
    22171.0563    0.206860D+05
    22191.0563    0.202448D+05
    22211.0563    0.198013D+05
    22231.0563    0.193586D+05
    22251.0563    0.189180D+05
    22271.0563    0.184816D+05
    22291.0563    0.180511D+05
    22311.0563    0.176282D+05
    22331.0563    0.172147D+05
    22351.0563    0.168118D+05
    22371.0563    0.164208D+05
    22391.0563    0.160435D+05
    22411.0563    0.156806D+05
    22431.0563    0.153331D+05
    22451.0563    0.150018D+05
    22471.0563    0.146875D+05
    22491.0563    0.143907D+05
    22511.0563    0.141119D+05
    22531.0563    0.138513D+05
    22551.0563    0.136091D+05
    22571.0563    0.133852D+05
    22591.0563    0.131799D+05
    22611.0563    0.129928D+05
    22631.0563    0.128236D+05
    22651.0563    0.126718D+05
    22671.0563    0.125370D+05
    22691.0563    0.124185D+05
    22711.0563    0.123155D+05
    22731.0563    0.122273D+05
    22751.0563    0.121531D+05
    22771.0563    0.120917D+05
    22791.0563    0.120421D+05
    22811.0563    0.120036D+05
    22831.0563    0.119747D+05
    22851.0563    0.119545D+05
    22871.0563    0.119416D+05
    22891.0563    0.119349D+05
    22911.0563    0.119332D+05
    22931.0563    0.119352D+05
    22951.0563    0.119399D+05
    22971.0563    0.119447D+05
    22991.0563    0.119513D+05
    23011.0563    0.119569D+05
    23031.0563    0.119606D+05
    23051.0563    0.119611D+05
    23071.0563    0.119577D+05
    23091.0563    0.119499D+05
    23111.0563    0.119365D+05
    23131.0563    0.119167D+05
    23151.0563    0.118898D+05
    23171.0563    0.118555D+05
    23191.0563    0.118131D+05
    23211.0563    0.117623D+05
    23231.0563    0.117026D+05
    23251.0563    0.116339D+05
    23271.0563    0.115549D+05
    23291.0563    0.114681D+05
    23311.0563    0.113720D+05
    23331.0563    0.112662D+05
    23351.0563    0.111520D+05
    23371.0563    0.110291D+05
    23391.0563    0.108977D+05
    23411.0563    0.107581D+05
    23431.0563    0.106110D+05
    23451.0563    0.104567D+05
    23471.0563    0.102959D+05
    23491.0563    0.101289D+05
    23511.0563    0.995630D+04
    23531.0563    0.977878D+04
    23551.0563    0.959712D+04
    23571.0563    0.941184D+04
    23591.0563    0.922355D+04
    23611.0563    0.903289D+04
    23631.0563    0.884019D+04
    23651.0563    0.864708D+04
    23671.0563    0.845357D+04
    23691.0563    0.826020D+04
    23711.0563    0.806771D+04
    23731.0563    0.787673D+04
    23751.0563    0.768773D+04
    23771.0563    0.750111D+04
    23791.0563    0.731759D+04
    23811.0563    0.713750D+04
    23831.0563    0.696113D+04
    23851.0563    0.678915D+04
    23871.0563    0.662168D+04
    23891.0563    0.645919D+04
    23911.0563    0.630183D+04
    23931.0563    0.614983D+04
    23951.0563    0.600337D+04
    23971.0563    0.586261D+04
    23991.0563    0.572759D+04
    24011.0563    0.559856D+04
    24031.0563    0.547542D+04
    24051.0563    0.535818D+04
    24071.0563    0.524678D+04
    24091.0563    0.514115D+04
    24111.0563    0.504127D+04
    24131.0563    0.494693D+04
    24151.0563    0.485801D+04
    24171.0563    0.477431D+04
    24191.0563    0.469555D+04
    24211.0563    0.462167D+04
    24231.0563    0.455232D+04
    24251.0563    0.448729D+04
    24271.0563    0.442605D+04
    24291.0563    0.436882D+04
    24311.0563    0.431501D+04
    24331.0563    0.426435D+04
    24351.0563    0.421653D+04
    24371.0563    0.417109D+04
    24391.0563    0.412811D+04
    24411.0563    0.408703D+04
    24431.0563    0.404764D+04
    24451.0563    0.400957D+04
    24471.0563    0.397258D+04
    24491.0563    0.393646D+04
    24511.0563    0.390088D+04
    24531.0563    0.386559D+04
    24551.0563    0.383037D+04
    24571.0563    0.379503D+04
    24591.0563    0.375903D+04
    24611.0563    0.372291D+04
    24631.0563    0.368599D+04
    24651.0563    0.364834D+04
    24671.0563    0.360965D+04
    24691.0563    0.356990D+04
    24711.0563    0.352909D+04
    24731.0563    0.348698D+04
    24751.0563    0.344368D+04
    24771.0563    0.339905D+04
    24791.0563    0.335313D+04
    24811.0563    0.330585D+04
    24831.0563    0.325726D+04
    24851.0563    0.320743D+04
    24871.0563    0.315639D+04
    24891.0563    0.310400D+04
    24911.0563    0.305073D+04
    24931.0563    0.299644D+04
    24951.0563    0.294110D+04
    24971.0563    0.288511D+04
    24991.0563    0.282839D+04
    25011.0563    0.277109D+04
    25031.0563    0.271327D+04
    25051.0563    0.265510D+04
    25071.0563    0.259675D+04
    25091.0563    0.253828D+04
    25111.0563    0.247984D+04
    25131.0563    0.242155D+04
    25151.0563    0.236349D+04
    25171.0563    0.230586D+04
    25191.0563    0.224873D+04
    25211.0563    0.219222D+04
    25231.0563    0.213641D+04
    25251.0563    0.208138D+04
    25271.0563    0.202735D+04
    25291.0563    0.197428D+04
    25311.0563    0.192235D+04
    25331.0563    0.187156D+04
    25351.0563    0.182200D+04
    25371.0563    0.177372D+04
    25391.0563    0.172675D+04
    25411.0563    0.168117D+04
    25431.0563    0.163699D+04
    25451.0563    0.159422D+04
    25471.0563    0.155293D+04
    25491.0563    0.151306D+04
    25511.0563    0.147468D+04
    25531.0563    0.143776D+04
    25551.0563    0.140228D+04
    25571.0563    0.136822D+04
    25591.0563    0.133555D+04
    25611.0563    0.130427D+04
    25631.0563    0.127435D+04
    25651.0563    0.124574D+04
    25671.0563    0.121838D+04
    25691.0563    0.119223D+04
    25711.0563    0.116726D+04
    25731.0563    0.114342D+04
    25751.0563    0.112063D+04
    25771.0563    0.109884D+04
    25791.0563    0.107802D+04
    25811.0563    0.105807D+04
    25831.0563    0.103896D+04
    25851.0563    0.102061D+04
    25871.0563    0.100299D+04
    25891.0563    0.985955D+03
    25911.0563    0.969586D+03
    25931.0563    0.953739D+03
    25951.0563    0.938382D+03
    25971.0563    0.923452D+03
    25991.0563    0.908850D+03
    26011.0563    0.894640D+03
    26031.0563    0.880692D+03
    26051.0563    0.867003D+03
    26071.0563    0.853503D+03
    26091.0563    0.840161D+03
    26111.0563    0.826957D+03
    26131.0563    0.813843D+03
    26151.0563    0.800799D+03
    26171.0563    0.787801D+03
    26191.0563    0.774825D+03
    26211.0563    0.761801D+03
    26231.0563    0.748823D+03
    26251.0563    0.735794D+03
    26271.0563    0.722761D+03
    26291.0563    0.709673D+03
    26311.0563    0.696541D+03
    26331.0563    0.683377D+03
    26351.0563    0.670148D+03
    26371.0563    0.656905D+03
    26391.0563    0.643621D+03
    26411.0563    0.630316D+03
    26431.0563    0.616986D+03
    26451.0563    0.603649D+03
    26471.0563    0.590325D+03
    26491.0563    0.577019D+03
    26511.0563    0.563730D+03
    26531.0563    0.550510D+03
    26551.0563    0.537354D+03
    26571.0563    0.524258D+03
    26591.0563    0.511285D+03
    26611.0563    0.498419D+03
    26631.0563    0.485688D+03
    26651.0563    0.473095D+03
    26671.0563    0.460665D+03
    26691.0563    0.448415D+03
    26711.0563    0.436354D+03
    26731.0563    0.424500D+03
    26751.0563    0.412864D+03
    26771.0563    0.401452D+03
    26791.0563    0.390283D+03
    26811.0563    0.379362D+03
    26831.0563    0.368702D+03
    26851.0563    0.358306D+03
    26871.0563    0.348178D+03
    26891.0563    0.338335D+03
    26911.0563    0.328769D+03
    26931.0563    0.319497D+03
    26951.0563    0.310511D+03
    26971.0563    0.301812D+03
    26991.0563    0.293397D+03
    27011.0563    0.285270D+03
    27031.0563    0.277430D+03
    27051.0563    0.269871D+03
    27071.0563    0.262585D+03
    27091.0563    0.255573D+03
    27111.0563    0.248824D+03
    27131.0563    0.242339D+03
    27151.0563    0.236106D+03
    27171.0563    0.230115D+03
    27191.0563    0.224361D+03
    27211.0563    0.218831D+03
    27231.0563    0.213523D+03
    27251.0563    0.208425D+03
    27271.0563    0.203529D+03
    27291.0563    0.198819D+03
    27311.0563    0.194288D+03
    27331.0563    0.189932D+03
    27351.0563    0.185738D+03
    27371.0563    0.181694D+03
    27391.0563    0.177788D+03
    27411.0563    0.174020D+03
    27431.0563    0.170373D+03
    27451.0563    0.166841D+03
    27471.0563    0.163413D+03
    27491.0563    0.160084D+03
    27511.0563    0.156837D+03
    27531.0563    0.153681D+03
    27551.0563    0.150596D+03
    27571.0563    0.147582D+03
    27591.0563    0.144631D+03
    27611.0563    0.141727D+03
    27631.0563    0.138884D+03
    27651.0563    0.136082D+03
    27671.0563    0.133327D+03
    27691.0563    0.130607D+03
    27711.0563    0.127922D+03
    27731.0563    0.125269D+03
    27751.0563    0.122642D+03
    27771.0563    0.120045D+03
    27791.0563    0.117471D+03
    27811.0563    0.114921D+03
    27831.0563    0.112388D+03
    27851.0563    0.109882D+03
    27871.0563    0.107393D+03
    27891.0563    0.104929D+03
    27911.0563    0.102484D+03
    27931.0563    0.100062D+03
    27951.0563    0.976599D+02
    27971.0563    0.952806D+02
    27991.0563    0.929275D+02
    28011.0563    0.905977D+02
    28031.0563    0.882949D+02
    28051.0563    0.860178D+02
    28071.0563    0.837695D+02
    28091.0563    0.815518D+02
    28111.0563    0.793648D+02
    28131.0563    0.772098D+02
    28151.0563    0.750904D+02
    28171.0563    0.730064D+02
    28191.0563    0.709572D+02
    28211.0563    0.689489D+02
    28231.0563    0.669794D+02
    28251.0563    0.650515D+02
 -----------------------------

 Leave Link  718 at Wed Mar 13 11:59:42 2024, MaxMem=120795955200 cpu:            5957.1 elap:              46.8
 (Enter /apps/gaussian/g16-c01-avx2/g16/l9999.exe)

 ----------------------------------------------------------------------

 Electric dipole moment (input orientation):
 (Debye = 10**-18 statcoulomb cm , SI units = C m)
                  (au)            (Debye)         (10**-30 SI)
   Tot        0.316447D-04      0.804328D-04      0.268295D-03
   x         -0.316447D-04     -0.804328D-04     -0.268295D-03
   y          0.000000D+00      0.000000D+00      0.000000D+00
   z          0.000000D+00      0.000000D+00      0.000000D+00

 Dipole polarizability, Alpha (input orientation).
 (esu units = cm**3 , SI units = C**2 m**2 J**-1)
 Alpha(0;0):
               (au)            (10**-24 esu)      (10**-40 SI)
   iso        0.252003D+03      0.373430D+02      0.415496D+02
   aniso      0.231627D+03      0.343236D+02      0.381902D+02
   xx         0.364957D+03      0.540810D+02      0.601733D+02
   yx         0.141612D+01      0.209848D+00      0.233487D+00
   yy         0.286700D+03      0.424846D+02      0.472704D+02
   zx         0.417344D-01      0.618440D-02      0.688107D-02
   zy         0.576921D-01      0.854908D-02      0.951214D-02
   zz         0.104351D+03      0.154633D+02      0.172052D+02

 ----------------------------------------------------------------------

 Dipole orientation:
     6          0.20534289         -6.30268131          2.54331601
     6          0.20914513         -6.35015558         -0.10469258
     6          0.13828224         -4.15540847         -1.53183271
     6          0.05948466         -1.78416028         -0.24628403
     6          0.05580990         -1.74442911          2.45652702
     6          0.13015527         -4.04595114          3.80936734
     6          0.14182870         -4.19682551         -4.31453215
     6         -0.01571113          0.54839561         -1.60163266
     6         -0.01167731          0.50710314         -4.38469282
     6          0.06688515         -1.86448502         -5.67011757
     6         -0.08186881          2.70144777         -5.81266100
     6         -0.09031555          2.78396906         -0.23949021
     6         -0.09372487          2.81434824          2.40894678
     6         -0.02211712          0.59607315          3.74094187
     1         -0.02411040          0.60142572          5.78651415
     1         -0.15345629          4.60722815          3.39046508
     1          0.26235274         -8.06571081          3.57762017
     1          0.12658135         -3.99131670          5.85422293
     6          0.21578431         -6.43269979         -5.67591557
     6          0.21904805         -6.46362795         -8.32433868
     6          0.14797277         -4.24555256         -9.65677408
     6          0.07057830         -1.90480618         -8.37275059
     1          0.27827823         -8.25677554         -9.30537362
     1          0.14994780         -4.25125254        -11.70235135
     6         -0.07788388          2.65336836         -8.46077905
     1         -0.13438233          4.41632837         -9.49524258
     6         -0.00321851          0.39648650         -9.72620690
     1          0.00040887          0.34112508        -11.77104432
     1          0.26970687         -8.17010824         -1.02438058
     1          0.27328072         -8.22470011         -4.70268144
     1         -0.14825413          4.57616114         -1.21210008
     1         -0.14200070          4.52160998         -4.89361055

 Electric dipole moment (dipole orientation):
 (Debye = 10**-18 statcoulomb cm , SI units = C m)
                  (au)            (Debye)         (10**-30 SI)
   Tot        0.316619D-04      0.804766D-04      0.268441D-03
   x          0.000000D+00      0.000000D+00      0.000000D+00
   y          0.000000D+00      0.000000D+00      0.000000D+00
   z          0.316619D-04      0.804766D-04      0.268441D-03

 Dipole polarizability, Alpha (dipole orientation).
 (esu units = cm**3 , SI units = C**2 m**2 J**-1)
 Alpha(0;0):
               (au)            (10**-24 esu)      (10**-40 SI)
   iso        0.252003D+03      0.373430D+02      0.415496D+02
   aniso      0.231627D+03      0.343236D+02      0.381902D+02
   xx         0.104546D+03      0.154922D+02      0.172374D+02
   yx        -0.595700D+01     -0.882737D+00     -0.982177D+00
   yy         0.286497D+03      0.424545D+02      0.472370D+02
   zx        -0.266562D+00     -0.395004D-01     -0.439502D-01
   zy         0.115922D+01      0.171778D+00      0.191129D+00
   zz         0.364965D+03      0.540822D+02      0.601746D+02

 ----------------------------------------------------------------------

 This type of calculation cannot be archived.


 QUANTUM MECHANICS IS BOHRING -- M.S. GORDON
 Job cpu time:       0 days  1 hours 40 minutes  8.5 seconds.
 Elapsed time:       0 days  0 hours  0 minutes 47.2 seconds.
 File lengths (MBytes):  RWF=      6 Int=      0 D2E=      0 Chk=     50 Scr=      1
 Normal termination of Gaussian 16 at Wed Mar 13 11:59:54 2024.
