 Entering Gaussian System, Link 0=g16
 Input=Acrolein_linked.gjf
 Output=Acrolein_linked.log
 Initial command:
 /apps/gaussian/g16-c01-avx2/g16/l1.exe "/var/tmp/pbs.9014505.pbs/Gau-3831851.inp" -scrdir="/var/tmp/pbs.9014505.pbs/"
 Entering Link 1 = /apps/gaussian/g16-c01-avx2/g16/l1.exe PID=   3831852.
  
 Copyright (c) 1988-2019, Gaussian, Inc.  All Rights Reserved.
  
 This is part of the Gaussian(R) 16 program.  It is based on
 the Gaussian(R) 09 system (copyright 2009, Gaussian, Inc.),
 the Gaussian(R) 03 system (copyright 2003, Gaussian, Inc.),
 the Gaussian(R) 98 system (copyright 1998, Gaussian, Inc.),
 the Gaussian(R) 94 system (copyright 1995, Gaussian, Inc.),
 the Gaussian 92(TM) system (copyright 1992, Gaussian, Inc.),
 the Gaussian 90(TM) system (copyright 1990, Gaussian, Inc.),
 the Gaussian 88(TM) system (copyright 1988, Gaussian, Inc.),
 the Gaussian 86(TM) system (copyright 1986, Carnegie Mellon
 University), and the Gaussian 82(TM) system (copyright 1983,
 Carnegie Mellon University). Gaussian is a federally registered
 trademark of Gaussian, Inc.
  
 This software contains proprietary and confidential information,
 including trade secrets, belonging to Gaussian, Inc.
  
 This software is provided under written license and may be
 used, copied, transmitted, or stored only in accord with that
 written license.
  
 The following legend is applicable only to US Government
 contracts under FAR:
  
                    RESTRICTED RIGHTS LEGEND
  
 Use, reproduction and disclosure by the US Government is
 subject to restrictions as set forth in subparagraphs (a)
 and (c) of the Commercial Computer Software - Restricted
 Rights clause in FAR 52.227-19.
  
 Gaussian, Inc.
 340 Quinnipiac St., Bldg. 40, Wallingford CT 06492
  
  
 ---------------------------------------------------------------
 Warning -- This program may not be used in any manner that
 competes with the business of Gaussian, Inc. or will provide
 assistance to any competitor of Gaussian, Inc.  The licensee
 of this program is prohibited from giving any competitor of
 Gaussian, Inc. access to this program.  By using this program,
 the user acknowledges that Gaussian, Inc. is engaged in the
 business of creating and licensing software in the field of
 computational chemistry and represents and warrants to the
 licensee that it is not a competitor of Gaussian, Inc. and that
 it will not use this program in any manner prohibited above.
 ---------------------------------------------------------------
  

 Cite this work as:
 Gaussian 16, Revision C.01,
 M. J. Frisch, G. W. Trucks, H. B. Schlegel, G. E. Scuseria, 
 M. A. Robb, J. R. Cheeseman, G. Scalmani, V. Barone, 
 G. A. Petersson, H. Nakatsuji, X. Li, M. Caricato, A. V. Marenich, 
 J. Bloino, B. G. Janesko, R. Gomperts, B. Mennucci, H. P. Hratchian, 
 J. V. Ortiz, A. F. Izmaylov, J. L. Sonnenberg, D. Williams-Young, 
 F. Ding, F. Lipparini, F. Egidi, J. Goings, B. Peng, A. Petrone, 
 T. Henderson, D. Ranasinghe, V. G. Zakrzewski, J. Gao, N. Rega, 
 G. Zheng, W. Liang, M. Hada, M. Ehara, K. Toyota, R. Fukuda, 
 J. Hasegawa, M. Ishida, T. Nakajima, Y. Honda, O. Kitao, H. Nakai, 
 T. Vreven, K. Throssell, J. A. Montgomery, Jr., J. E. Peralta, 
 F. Ogliaro, M. J. Bearpark, J. J. Heyd, E. N. Brothers, K. N. Kudin, 
 V. N. Staroverov, T. A. Keith, R. Kobayashi, J. Normand, 
 K. Raghavachari, A. P. Rendell, J. C. Burant, S. S. Iyengar, 
 J. Tomasi, M. Cossi, J. M. Millam, M. Klene, C. Adamo, R. Cammi, 
 J. W. Ochterski, R. L. Martin, K. Morokuma, O. Farkas, 
 J. B. Foresman, and D. J. Fox, Gaussian, Inc., Wallingford CT, 2019.
 
 ******************************************
 Gaussian 16:  ES64L-G16RevC.01  3-Jul-2019
                 1-Mar-2024 
 ******************************************
 %chk=Acrolein1.chk
 %NProcShared=32
 Will use up to   32 processors via shared memory.
 %Mem=110GB
 --------------------------------------------
 #p CAM-B3LYP/TZVP geom=connectivity Opt Freq
 --------------------------------------------
 1/18=20,19=15,26=3,38=1,57=2/1,3;
 2/9=110,12=2,17=6,18=5,40=1/2;
 3/5=19,7=101,11=2,25=1,30=1,71=1,74=-40/1,2,3;
 4//1;
 5/5=2,38=5/2;
 6/7=2,8=2,9=2,10=2,28=1/1;
 7//1,2,3,16;
 1/18=20,19=15,26=3/3(2);
 2/9=110/2;
 99//99;
 2/9=110/2;
 3/5=19,7=101,11=2,25=1,30=1,71=1,74=-40/1,2,3;
 4/5=5,16=3,69=1/1;
 5/5=2,38=5/2;
 7//1,2,3,16;
 1/18=20,19=15,26=3/3(-5);
 2/9=110/2;
 6/7=2,8=2,9=2,10=2,19=2,28=1/1;
 99/9=1/99;
 Leave Link    1 at Fri Mar  1 15:31:16 2024, MaxMem= 14763950080 cpu:               0.7 elap:               0.0
 (Enter /apps/gaussian/g16-c01-avx2/g16/l101.exe)
 ----------------------------------------------------------------------
 Ground state optimization and frequency calculation for acrolein, to b
 e followed up by TD-DFT, excited state opt and freq, and FC-HT analysi
 s.
 ----------------------------------------------------------------------
 Symbolic Z-matrix:
 Charge =  0 Multiplicity = 1
 O                    -3.79868   0.69626  -0.2686 
 C                    -5.05708   0.69626  -0.2686 
 H                    -5.59575  -0.2277   -0.30086 
 C                    -5.82444   2.03065  -0.222 
 H                    -5.28578   2.9546   -0.18973 
 C                    -7.17962   2.03869  -0.22172 
 H                    -7.72377   1.11795  -0.25387 
 H                    -7.70726   2.96898  -0.18923 
 
 ITRead=  0  0  0  0  0  0  0  0
 MicOpt= -1 -1 -1 -1 -1 -1 -1 -1
 NAtoms=      8 NQM=        8 NQMF=       0 NMMI=      0 NMMIF=      0
                NMic=       0 NMicF=      0.
                    Isotopes and Nuclear Properties:
 (Nuclear quadrupole moments (NQMom) in fm**2, nuclear magnetic moments (NMagM)
  in nuclear magnetons)

  Atom         1           2           3           4           5           6           7           8
 IAtWgt=          16          12           1          12           1          12           1           1
 AtmWgt=  15.9949146  12.0000000   1.0078250  12.0000000   1.0078250  12.0000000   1.0078250   1.0078250
 NucSpn=           0           0           1           0           1           0           1           1
 AtZEff=  -0.0000000  -0.0000000  -0.0000000  -0.0000000  -0.0000000  -0.0000000  -0.0000000  -0.0000000
 NQMom=    0.0000000   0.0000000   0.0000000   0.0000000   0.0000000   0.0000000   0.0000000   0.0000000
 NMagM=    0.0000000   0.0000000   2.7928460   0.0000000   2.7928460   0.0000000   2.7928460   2.7928460
 AtZNuc=   8.0000000   6.0000000   1.0000000   6.0000000   1.0000000   6.0000000   1.0000000   1.0000000
 Leave Link  101 at Fri Mar  1 15:31:17 2024, MaxMem= 14763950080 cpu:               6.1 elap:               0.2
 (Enter /apps/gaussian/g16-c01-avx2/g16/l103.exe)

 GradGradGradGradGradGradGradGradGradGradGradGradGradGradGradGradGradGrad
 Berny optimization.
 Initialization pass.
                           ----------------------------
                           !    Initial Parameters    !
                           ! (Angstroms and Degrees)  !
 --------------------------                            --------------------------
 ! Name  Definition              Value          Derivative Info.                !
 --------------------------------------------------------------------------------
 ! R1    R(1,2)                  1.2584         estimate D2E/DX2                !
 ! R2    R(2,3)                  1.07           estimate D2E/DX2                !
 ! R3    R(2,4)                  1.54           estimate D2E/DX2                !
 ! R4    R(4,5)                  1.07           estimate D2E/DX2                !
 ! R5    R(4,6)                  1.3552         estimate D2E/DX2                !
 ! R6    R(6,7)                  1.07           estimate D2E/DX2                !
 ! R7    R(6,8)                  1.07           estimate D2E/DX2                !
 ! A1    A(1,2,3)              120.2269         estimate D2E/DX2                !
 ! A2    A(1,2,4)              119.8865         estimate D2E/DX2                !
 ! A3    A(3,2,4)              119.8865         estimate D2E/DX2                !
 ! A4    A(2,4,5)              119.8865         estimate D2E/DX2                !
 ! A5    A(2,4,6)              120.2269         estimate D2E/DX2                !
 ! A6    A(5,4,6)              119.8865         estimate D2E/DX2                !
 ! A7    A(4,6,7)              120.2269         estimate D2E/DX2                !
 ! A8    A(4,6,8)              119.8865         estimate D2E/DX2                !
 ! A9    A(7,6,8)              119.8865         estimate D2E/DX2                !
 ! D1    D(1,2,4,5)              0.0            estimate D2E/DX2                !
 ! D2    D(1,2,4,6)            180.0            estimate D2E/DX2                !
 ! D3    D(3,2,4,5)            180.0            estimate D2E/DX2                !
 ! D4    D(3,2,4,6)              0.0            estimate D2E/DX2                !
 ! D5    D(2,4,6,7)              0.0            estimate D2E/DX2                !
 ! D6    D(2,4,6,8)            180.0            estimate D2E/DX2                !
 ! D7    D(5,4,6,7)            180.0            estimate D2E/DX2                !
 ! D8    D(5,4,6,8)              0.0            estimate D2E/DX2                !
 --------------------------------------------------------------------------------
 Trust Radius=3.00D-01 FncErr=1.00D-07 GrdErr=1.00D-06 EigMax=2.50D+02 EigMin=1.00D-04
 Number of steps in this run=     34 maximum allowed number of steps=    100.
 GradGradGradGradGradGradGradGradGradGradGradGradGradGradGradGradGradGrad

 Leave Link  103 at Fri Mar  1 15:31:17 2024, MaxMem= 14763950080 cpu:               0.5 elap:               0.0
 (Enter /apps/gaussian/g16-c01-avx2/g16/l202.exe)
                          Input orientation:                          
 ---------------------------------------------------------------------
 Center     Atomic      Atomic             Coordinates (Angstroms)
 Number     Number       Type             X           Y           Z
 ---------------------------------------------------------------------
      1          8           0       -3.798685    0.696257   -0.268595
      2          6           0       -5.057085    0.696257   -0.268595
      3          1           0       -5.595751   -0.227700   -0.300860
      4          6           0       -5.824442    2.030645   -0.221997
      5          1           0       -5.285776    2.954603   -0.189732
      6          6           0       -7.179618    2.038692   -0.221716
      7          1           0       -7.723768    1.117950   -0.253869
      8          1           0       -7.707261    2.968982   -0.189230
 ---------------------------------------------------------------------
                    Distance matrix (angstroms):
                    1          2          3          4          5
     1  O    0.000000
     2  C    1.258400   0.000000
     3  H    2.020937   1.070000   0.000000
     4  C    2.426202   1.540000   2.271265   0.000000
     5  H    2.705140   2.271265   3.199295   1.070000   0.000000
     6  C    3.637999   2.511867   2.766123   1.355200   2.103938
     7  H    3.947698   2.699859   2.518221   2.107479   3.053066
     8  H    4.522006   3.492135   3.832716   2.103938   2.421527
                    6          7          8
     6  C    0.000000
     7  H    1.070000   0.000000
     8  H    1.070000   1.852234   0.000000
 Stoichiometry    C3H4O
 Framework group  CS[SG(C3H4O)]
 Deg. of freedom    13
 Full point group                 CS      NOp   2
 Largest Abelian subgroup         CS      NOp   2
 Largest concise Abelian subgroup C1      NOp   1
                         Standard orientation:                         
 ---------------------------------------------------------------------
 Center     Atomic      Atomic             Coordinates (Angstroms)
 Number     Number       Type             X           Y           Z
 ---------------------------------------------------------------------
      1          8           0       -1.241167   -1.345655   -0.000000
      2          6           0       -0.108610   -0.797124   -0.000000
      3          1           0        0.779183   -1.394387   -0.000000
      4          6           0       -0.000000    0.739042    0.000000
      5          1           0       -0.887793    1.336305    0.000000
      6          6           0        1.216145    1.337004    0.000000
      7          1           0        2.107471    0.745026   -0.000000
      8          1           0        1.285265    2.404769    0.000000
 ---------------------------------------------------------------------
 Rotational constants (GHZ):          45.0402467           4.4628788           4.0605348
 Leave Link  202 at Fri Mar  1 15:31:18 2024, MaxMem= 14763950080 cpu:               1.1 elap:               0.1
 (Enter /apps/gaussian/g16-c01-avx2/g16/l301.exe)
 Standard basis: TZVP (5D, 7F)
 Ernie: Thresh=  0.10000D-02 Tol=  0.10000D-05 Strict=F.
 There are    80 symmetry adapted cartesian basis functions of A'  symmetry.
 There are    24 symmetry adapted cartesian basis functions of A"  symmetry.
 There are    76 symmetry adapted basis functions of A'  symmetry.
 There are    24 symmetry adapted basis functions of A"  symmetry.
   100 basis functions,   172 primitive gaussians,   104 cartesian basis functions
    15 alpha electrons       15 beta electrons
       nuclear repulsion energy       100.9303217978 Hartrees.
 IExCor=20419 DFT=T Ex+Corr=CAM-B3LYP ExCW=0 ScaHFX=  1.000000
 ScaDFX=  1.000000  1.000000  1.000000  0.810000 ScalE2=  1.000000  1.000000
 IRadAn=      5 IRanWt=     -1 IRanGd=            0 ICorTp=0 IEmpDi=  4
 HFx  wShort=  0.000000 wLong=  0.330000 cFull=  0.190000 cShort=  0.000000 cLong=  0.460000
 DFx  wShort=  0.000000 wLong=  0.330000 cFull=  0.190000 cShort=  0.000000 cLong=  0.460000
 NAtoms=    8 NActive=    8 NUniq=    8 SFac= 1.00D+00 NAtFMM=   60 NAOKFM=F Big=F
 Integral buffers will be    131072 words long.
 Raffenetti 2 integral format.
 Two-electron integral symmetry is turned on.
 Leave Link  301 at Fri Mar  1 15:31:19 2024, MaxMem= 14763950080 cpu:               1.1 elap:               0.1
 (Enter /apps/gaussian/g16-c01-avx2/g16/l302.exe)
 NPDir=0 NMtPBC=     1 NCelOv=     1 NCel=       1 NClECP=     1 NCelD=      1
         NCelK=      1 NCelE2=     1 NClLst=     1 CellRange=     0.0.
 One-electron integrals computed using PRISM.
 One-electron integral symmetry used in STVInt
 NBasis=   100 RedAO= T EigKep=  4.61D-04  NBF=    76    24
 NBsUse=   100 1.00D-06 EigRej= -1.00D+00 NBFU=    76    24
 Precomputing XC quadrature grid using
 IXCGrd= 4 IRadAn=           5 IRanWt=          -1 IRanGd=           0 AccXCQ= 0.00D+00.
 Generated NRdTot=       0 NPtTot=           0 NUsed=           0 NTot=          32
 NSgBfM=   104   104   104   104   104 MxSgAt=     8 MxSgA2=     8.
 Leave Link  302 at Fri Mar  1 15:31:20 2024, MaxMem= 14763950080 cpu:               3.5 elap:               0.1
 (Enter /apps/gaussian/g16-c01-avx2/g16/l303.exe)
 DipDrv:  MaxL=1.
 Leave Link  303 at Fri Mar  1 15:31:21 2024, MaxMem= 14763950080 cpu:               0.6 elap:               0.0
 (Enter /apps/gaussian/g16-c01-avx2/g16/l401.exe)
 ExpMin= 9.52D-02 ExpMax= 2.70D+04 ExpMxC= 9.22D+02 IAcc=3 IRadAn=         5 AccDes= 0.00D+00
 Harris functional with IExCor=20419 and IRadAn=       5 diagonalized for initial guess.
 HarFok:  IExCor=20419 AccDes= 0.00D+00 IRadAn=         5 IDoV= 1 UseB2=F ITyADJ=14
 ICtDFT=  3500011 ScaDFX=  1.000000  1.000000  1.000000  1.000000
 FoFCou: FMM=F IPFlag=           0 FMFlag=      100000 FMFlg1=           0
         NFxFlg=           0 DoJE=T BraDBF=F KetDBF=T FulRan=T
         wScrn=  0.000000 ICntrl=       500 IOpCl=  0 I1Cent=   200000004 NGrid=           0
         NMat0=    1 NMatS0=      1 NMatT0=    0 NMatD0=    1 NMtDS0=    0 NMtDT0=    0
 Petite list used in FoFCou.
 Harris En= -184.692979378627    
 JPrj=0 DoOrth=F DoCkMO=F.
 Initial guess orbital symmetries:
       Occupied  (A') (A') (A') (A') (A') (A') (A') (A') (A') (A')
                 (A') (A') (A") (A") (A')
       Virtual   (A") (A") (A') (A') (A') (A') (A') (A') (A") (A')
                 (A') (A") (A') (A") (A') (A') (A') (A') (A') (A')
                 (A') (A') (A') (A") (A') (A') (A') (A') (A') (A")
                 (A') (A") (A") (A') (A') (A') (A') (A") (A") (A")
                 (A') (A') (A') (A") (A') (A') (A') (A') (A') (A")
                 (A') (A") (A') (A") (A') (A") (A') (A') (A') (A")
                 (A') (A") (A') (A') (A") (A') (A') (A') (A") (A')
                 (A') (A') (A') (A') (A') (A") (A') (A') (A') (A')
                 (A') (A') (A') (A') (A')
 The electronic state of the initial guess is 1-A'.
 Leave Link  401 at Fri Mar  1 15:31:22 2024, MaxMem= 14763950080 cpu:              10.2 elap:               0.3
 (Enter /apps/gaussian/g16-c01-avx2/g16/l502.exe)
 Keep R1 ints in memory in symmetry-blocked form, NReq=55822198.
 FoFCou: FMM=F IPFlag=           0 FMFlag=           0 FMFlg1=           0
         NFxFlg=           0 DoJE=F BraDBF=F KetDBF=F FulRan=T
         wScrn=  0.000000 ICntrl=       600 IOpCl=  0 I1Cent=           0 NGrid=           0
         NMat0=    1 NMatS0=   5050 NMatT0=    0 NMatD0=    1 NMtDS0=    0 NMtDT0=    0
 Petite list used in FoFCou.
 Closed shell SCF:
 Using DIIS extrapolation, IDIIS=  1040.
 NGot= 14763950080 LenX= 14757042551 LenY= 14757031294
 Requested convergence on RMS density matrix=1.00D-08 within 128 cycles.
 Requested convergence on MAX density matrix=1.00D-06.
 Requested convergence on             energy=1.00D-06.
 No special actions if energy rises.
 Integral accuracy reduced to 1.0D-05 until final iterations.

 Cycle   1  Pass 0  IDiag  1:
 E= -191.829366323543    
 DIIS: error= 5.62D-02 at cycle   1 NSaved=   1.
 NSaved= 1 IEnMin= 1 EnMin= -191.829366323543     IErMin= 1 ErrMin= 5.62D-02
 ErrMax= 5.62D-02  0.00D+00 EMaxC= 1.00D-01 BMatC= 3.22D-01 BMatP= 3.22D-01
 IDIUse=3 WtCom= 4.38D-01 WtEn= 5.62D-01
 Coeff-Com:  0.100D+01
 Coeff-En:   0.100D+01
 Coeff:      0.100D+01
 Gap=     0.313 Goal=   None    Shift=    0.000
 GapD=    0.313 DampG=1.000 DampE=0.500 DampFc=0.5000 IDamp=-1.
 Damping current iteration by 5.00D-01
 RMSDP=4.39D-03 MaxDP=1.63D-01              OVMax= 1.08D-01

 Cycle   2  Pass 0  IDiag  1:
 E= -191.851645180640     Delta-E=       -0.022278857096 Rises=F Damp=T
 DIIS: error= 2.58D-02 at cycle   2 NSaved=   2.
 NSaved= 2 IEnMin= 2 EnMin= -191.851645180640     IErMin= 2 ErrMin= 2.58D-02
 ErrMax= 2.58D-02  0.00D+00 EMaxC= 1.00D-01 BMatC= 6.45D-02 BMatP= 3.22D-01
 IDIUse=3 WtCom= 7.42D-01 WtEn= 2.58D-01
 Coeff-Com: -0.583D+00 0.158D+01
 Coeff-En:   0.000D+00 0.100D+01
 Coeff:     -0.432D+00 0.143D+01
 Gap=     0.295 Goal=   None    Shift=    0.000
 RMSDP=2.21D-03 MaxDP=5.37D-02 DE=-2.23D-02 OVMax= 1.44D-01

 Cycle   3  Pass 0  IDiag  1:
 E= -191.856202231480     Delta-E=       -0.004557050840 Rises=F Damp=F
 DIIS: error= 2.36D-02 at cycle   3 NSaved=   3.
 NSaved= 3 IEnMin= 3 EnMin= -191.856202231480     IErMin= 3 ErrMin= 2.36D-02
 ErrMax= 2.36D-02  0.00D+00 EMaxC= 1.00D-01 BMatC= 2.85D-02 BMatP= 6.45D-02
 IDIUse=3 WtCom= 7.64D-01 WtEn= 2.36D-01
 Coeff-Com: -0.403D+00 0.892D+00 0.511D+00
 Coeff-En:   0.000D+00 0.383D+00 0.617D+00
 Coeff:     -0.308D+00 0.771D+00 0.536D+00
 Gap=     0.318 Goal=   None    Shift=    0.000
 RMSDP=2.59D-03 MaxDP=1.02D-01 DE=-4.56D-03 OVMax= 6.20D-02

 Cycle   4  Pass 0  IDiag  1:
 E= -191.875547317763     Delta-E=       -0.019345086284 Rises=F Damp=F
 DIIS: error= 6.37D-03 at cycle   4 NSaved=   4.
 NSaved= 4 IEnMin= 4 EnMin= -191.875547317763     IErMin= 4 ErrMin= 6.37D-03
 ErrMax= 6.37D-03  0.00D+00 EMaxC= 1.00D-01 BMatC= 3.65D-03 BMatP= 2.85D-02
 IDIUse=3 WtCom= 9.36D-01 WtEn= 6.37D-02
 Coeff-Com: -0.173D+00 0.378D+00 0.344D+00 0.451D+00
 Coeff-En:   0.000D+00 0.000D+00 0.849D-01 0.915D+00
 Coeff:     -0.162D+00 0.354D+00 0.328D+00 0.480D+00
 Gap=     0.302 Goal=   None    Shift=    0.000
 RMSDP=4.56D-04 MaxDP=1.35D-02 DE=-1.93D-02 OVMax= 1.90D-02

 Cycle   5  Pass 0  IDiag  1:
 E= -191.878094600126     Delta-E=       -0.002547282362 Rises=F Damp=F
 DIIS: error= 9.37D-04 at cycle   5 NSaved=   5.
 NSaved= 5 IEnMin= 5 EnMin= -191.878094600126     IErMin= 5 ErrMin= 9.37D-04
 ErrMax= 9.37D-04  0.00D+00 EMaxC= 1.00D-01 BMatC= 3.62D-05 BMatP= 3.65D-03
 IDIUse=3 WtCom= 9.91D-01 WtEn= 9.37D-03
 Coeff-Com: -0.263D-01 0.565D-01 0.647D-01 0.152D+00 0.754D+00
 Coeff-En:   0.000D+00 0.000D+00 0.000D+00 0.000D+00 0.100D+01
 Coeff:     -0.261D-01 0.560D-01 0.641D-01 0.150D+00 0.756D+00
 Gap=     0.303 Goal=   None    Shift=    0.000
 RMSDP=1.01D-04 MaxDP=3.67D-03 DE=-2.55D-03 OVMax= 2.75D-03

 Cycle   6  Pass 0  IDiag  1:
 E= -191.878121753063     Delta-E=       -0.000027152937 Rises=F Damp=F
 DIIS: error= 3.37D-04 at cycle   6 NSaved=   6.
 NSaved= 6 IEnMin= 6 EnMin= -191.878121753063     IErMin= 6 ErrMin= 3.37D-04
 ErrMax= 3.37D-04  0.00D+00 EMaxC= 1.00D-01 BMatC= 8.28D-06 BMatP= 3.62D-05
 IDIUse=3 WtCom= 9.97D-01 WtEn= 3.37D-03
 Coeff-Com:  0.149D-01-0.329D-01-0.250D-01-0.855D-03 0.400D+00 0.644D+00
 Coeff-En:   0.000D+00 0.000D+00 0.000D+00 0.000D+00 0.462D-01 0.954D+00
 Coeff:      0.149D-01-0.328D-01-0.250D-01-0.852D-03 0.399D+00 0.645D+00
 Gap=     0.303 Goal=   None    Shift=    0.000
 RMSDP=3.49D-05 MaxDP=1.13D-03 DE=-2.72D-05 OVMax= 1.76D-03

 Cycle   7  Pass 0  IDiag  1:
 E= -191.878130571059     Delta-E=       -0.000008817996 Rises=F Damp=F
 DIIS: error= 8.09D-05 at cycle   7 NSaved=   7.
 NSaved= 7 IEnMin= 7 EnMin= -191.878130571059     IErMin= 7 ErrMin= 8.09D-05
 ErrMax= 8.09D-05  0.00D+00 EMaxC= 1.00D-01 BMatC= 3.17D-07 BMatP= 8.28D-06
 IDIUse=1 WtCom= 1.00D+00 WtEn= 0.00D+00
 Coeff-Com:  0.524D-02-0.113D-01-0.117D-01-0.102D-01 0.259D-01 0.133D+00
 Coeff-Com:  0.869D+00
 Coeff:      0.524D-02-0.113D-01-0.117D-01-0.102D-01 0.259D-01 0.133D+00
 Coeff:      0.869D+00
 Gap=     0.303 Goal=   None    Shift=    0.000
 RMSDP=1.45D-05 MaxDP=5.29D-04 DE=-8.82D-06 OVMax= 3.49D-04

 Cycle   8  Pass 0  IDiag  1:
 E= -191.878131030617     Delta-E=       -0.000000459559 Rises=F Damp=F
 DIIS: error= 2.16D-05 at cycle   8 NSaved=   8.
 NSaved= 8 IEnMin= 8 EnMin= -191.878131030617     IErMin= 8 ErrMin= 2.16D-05
 ErrMax= 2.16D-05  0.00D+00 EMaxC= 1.00D-01 BMatC= 2.83D-08 BMatP= 3.17D-07
 IDIUse=1 WtCom= 1.00D+00 WtEn= 0.00D+00
 Coeff-Com: -0.799D-03 0.175D-02 0.260D-03-0.143D-02-0.401D-01-0.463D-01
 Coeff-Com:  0.232D+00 0.855D+00
 Coeff:     -0.799D-03 0.175D-02 0.260D-03-0.143D-02-0.401D-01-0.463D-01
 Coeff:      0.232D+00 0.855D+00
 Gap=     0.303 Goal=   None    Shift=    0.000
 RMSDP=5.36D-06 MaxDP=1.99D-04 DE=-4.60D-07 OVMax= 1.52D-04

 Initial convergence to 1.0D-05 achieved.  Increase integral accuracy.
 Cycle   9  Pass 1  IDiag  1:
 E= -191.878135118039     Delta-E=       -0.000004087421 Rises=F Damp=F
 DIIS: error= 3.72D-06 at cycle   1 NSaved=   1.
 NSaved= 1 IEnMin= 1 EnMin= -191.878135118039     IErMin= 1 ErrMin= 3.72D-06
 ErrMax= 3.72D-06  0.00D+00 EMaxC= 1.00D-01 BMatC= 9.01D-10 BMatP= 9.01D-10
 IDIUse=1 WtCom= 1.00D+00 WtEn= 0.00D+00
 Coeff-Com:  0.100D+01
 Coeff:      0.100D+01
 Gap=     0.303 Goal=   None    Shift=    0.000
 RMSDP=5.36D-06 MaxDP=1.99D-04 DE=-4.09D-06 OVMax= 2.34D-05

 Cycle  10  Pass 1  IDiag  1:
 E= -191.878135119551     Delta-E=       -0.000000001512 Rises=F Damp=F
 DIIS: error= 1.69D-06 at cycle   2 NSaved=   2.
 NSaved= 2 IEnMin= 2 EnMin= -191.878135119551     IErMin= 2 ErrMin= 1.69D-06
 ErrMax= 1.69D-06  0.00D+00 EMaxC= 1.00D-01 BMatC= 3.47D-10 BMatP= 9.01D-10
 IDIUse=1 WtCom= 1.00D+00 WtEn= 0.00D+00
 Coeff-Com:  0.343D+00 0.657D+00
 Coeff:      0.343D+00 0.657D+00
 Gap=     0.303 Goal=   None    Shift=    0.000
 RMSDP=3.30D-07 MaxDP=1.21D-05 DE=-1.51D-09 OVMax= 9.14D-06

 Cycle  11  Pass 1  IDiag  1:
 E= -191.878135119907     Delta-E=       -0.000000000356 Rises=F Damp=F
 DIIS: error= 9.75D-07 at cycle   3 NSaved=   3.
 NSaved= 3 IEnMin= 3 EnMin= -191.878135119907     IErMin= 3 ErrMin= 9.75D-07
 ErrMax= 9.75D-07  0.00D+00 EMaxC= 1.00D-01 BMatC= 4.92D-11 BMatP= 3.47D-10
 IDIUse=1 WtCom= 1.00D+00 WtEn= 0.00D+00
 Coeff-Com: -0.370D-01 0.215D+00 0.822D+00
 Coeff:     -0.370D-01 0.215D+00 0.822D+00
 Gap=     0.303 Goal=   None    Shift=    0.000
 RMSDP=1.57D-07 MaxDP=5.05D-06 DE=-3.56D-10 OVMax= 5.62D-06

 Cycle  12  Pass 1  IDiag  1:
 E= -191.878135119960     Delta-E=       -0.000000000054 Rises=F Damp=F
 DIIS: error= 6.04D-07 at cycle   4 NSaved=   4.
 NSaved= 4 IEnMin= 4 EnMin= -191.878135119960     IErMin= 4 ErrMin= 6.04D-07
 ErrMax= 6.04D-07  0.00D+00 EMaxC= 1.00D-01 BMatC= 2.57D-11 BMatP= 4.92D-11
 IDIUse=1 WtCom= 1.00D+00 WtEn= 0.00D+00
 Coeff-Com: -0.837D-01 0.278D-01 0.515D+00 0.541D+00
 Coeff:     -0.837D-01 0.278D-01 0.515D+00 0.541D+00
 Gap=     0.303 Goal=   None    Shift=    0.000
 RMSDP=1.02D-07 MaxDP=3.76D-06 DE=-5.35D-11 OVMax= 1.64D-06

 Cycle  13  Pass 1  IDiag  1:
 E= -191.878135119982     Delta-E=       -0.000000000022 Rises=F Damp=F
 DIIS: error= 1.88D-07 at cycle   5 NSaved=   5.
 NSaved= 5 IEnMin= 5 EnMin= -191.878135119982     IErMin= 5 ErrMin= 1.88D-07
 ErrMax= 1.88D-07  0.00D+00 EMaxC= 1.00D-01 BMatC= 1.02D-12 BMatP= 2.57D-11
 IDIUse=1 WtCom= 1.00D+00 WtEn= 0.00D+00
 Coeff-Com: -0.245D-01-0.272D-02 0.941D-01 0.195D+00 0.738D+00
 Coeff:     -0.245D-01-0.272D-02 0.941D-01 0.195D+00 0.738D+00
 Gap=     0.303 Goal=   None    Shift=    0.000
 RMSDP=1.22D-08 MaxDP=2.50D-07 DE=-2.20D-11 OVMax= 1.11D-06

 Cycle  14  Pass 1  IDiag  1:
 E= -191.878135119984     Delta-E=       -0.000000000002 Rises=F Damp=F
 DIIS: error= 5.59D-08 at cycle   6 NSaved=   6.
 NSaved= 6 IEnMin= 6 EnMin= -191.878135119984     IErMin= 6 ErrMin= 5.59D-08
 ErrMax= 5.59D-08  0.00D+00 EMaxC= 1.00D-01 BMatC= 3.44D-13 BMatP= 1.02D-12
 IDIUse=1 WtCom= 1.00D+00 WtEn= 0.00D+00
 Coeff-Com:  0.783D-03-0.776D-02-0.496D-01-0.748D-02 0.385D+00 0.679D+00
 Coeff:      0.783D-03-0.776D-02-0.496D-01-0.748D-02 0.385D+00 0.679D+00
 Gap=     0.303 Goal=   None    Shift=    0.000
 RMSDP=1.53D-08 MaxDP=5.72D-07 DE=-1.88D-12 OVMax= 2.51D-07

 Cycle  15  Pass 1  IDiag  1:
 E= -191.878135119984     Delta-E=        0.000000000000 Rises=F Damp=F
 DIIS: error= 1.90D-08 at cycle   7 NSaved=   7.
 NSaved= 7 IEnMin= 6 EnMin= -191.878135119984     IErMin= 7 ErrMin= 1.90D-08
 ErrMax= 1.90D-08  0.00D+00 EMaxC= 1.00D-01 BMatC= 1.90D-14 BMatP= 3.44D-13
 IDIUse=1 WtCom= 1.00D+00 WtEn= 0.00D+00
 Coeff-Com:  0.310D-02-0.215D-02-0.284D-01-0.256D-01 0.103D+00 0.261D+00
 Coeff-Com:  0.689D+00
 Coeff:      0.310D-02-0.215D-02-0.284D-01-0.256D-01 0.103D+00 0.261D+00
 Coeff:      0.689D+00
 Gap=     0.303 Goal=   None    Shift=    0.000
 RMSDP=1.86D-09 MaxDP=5.30D-08 DE= 0.00D+00 OVMax= 8.54D-08

 SCF Done:  E(RCAM-B3LYP) =  -191.878135120     A.U. after   15 cycles
            NFock= 15  Conv=0.19D-08     -V/T= 2.0054
 KE= 1.908510536649D+02 PE=-6.499360487821D+02 EE= 1.662765381994D+02
 Leave Link  502 at Fri Mar  1 15:31:23 2024, MaxMem= 14763950080 cpu:              27.3 elap:               1.0
 (Enter /apps/gaussian/g16-c01-avx2/g16/l601.exe)
 Copying SCF densities to generalized density rwf, IOpCl= 0 IROHF=0.

 **********************************************************************

            Population analysis using the SCF Density.

 **********************************************************************

 Orbital symmetries:
       Occupied  (A') (A') (A') (A') (A') (A') (A') (A') (A') (A')
                 (A') (A') (A") (A") (A')
       Virtual   (A") (A") (A') (A') (A') (A') (A') (A') (A') (A")
                 (A') (A") (A') (A") (A') (A') (A') (A') (A') (A')
                 (A') (A') (A') (A") (A') (A') (A') (A') (A') (A")
                 (A') (A") (A') (A") (A') (A') (A") (A') (A') (A")
                 (A") (A') (A') (A") (A') (A') (A') (A') (A') (A")
                 (A') (A") (A') (A") (A') (A") (A') (A') (A') (A")
                 (A') (A") (A') (A') (A") (A') (A') (A') (A") (A')
                 (A') (A') (A') (A') (A') (A") (A') (A') (A') (A')
                 (A') (A') (A') (A') (A')
 The electronic state is 1-A'.
 Alpha  occ. eigenvalues --  -19.20654 -10.35470 -10.28209 -10.28052  -1.11365
 Alpha  occ. eigenvalues --   -0.88599  -0.73010  -0.66590  -0.56525  -0.54714
 Alpha  occ. eigenvalues --   -0.49311  -0.47194  -0.46356  -0.35729  -0.33635
 Alpha virt. eigenvalues --   -0.03288   0.06706   0.09342   0.10344   0.13585
 Alpha virt. eigenvalues --    0.15364   0.17515   0.20554   0.23596   0.23935
 Alpha virt. eigenvalues --    0.27577   0.29783   0.30469   0.34633   0.35568
 Alpha virt. eigenvalues --    0.36801   0.42276   0.45491   0.46888   0.50585
 Alpha virt. eigenvalues --    0.51015   0.51301   0.54329   0.58010   0.59542
 Alpha virt. eigenvalues --    0.66398   0.70101   0.72749   0.87389   1.22326
 Alpha virt. eigenvalues --    1.25234   1.28242   1.30582   1.30658   1.31654
 Alpha virt. eigenvalues --    1.34337   1.38556   1.38637   1.45879   1.46057
 Alpha virt. eigenvalues --    1.47673   1.51395   1.55717   1.56358   1.70059
 Alpha virt. eigenvalues --    1.74187   1.80044   1.84783   1.87257   1.89454
 Alpha virt. eigenvalues --    1.91451   1.96652   1.98046   2.12042   2.13864
 Alpha virt. eigenvalues --    2.16739   2.25147   2.29452   2.39893   2.42642
 Alpha virt. eigenvalues --    2.47652   2.51582   2.52051   2.65670   2.69048
 Alpha virt. eigenvalues --    2.69310   2.72913   2.76941   2.77126   2.82076
 Alpha virt. eigenvalues --    2.86777   3.01881   3.10900   3.13500   3.19381
 Alpha virt. eigenvalues --    3.19673   3.25287   3.28533   3.50806   3.53620
 Alpha virt. eigenvalues --    4.18863  21.62702  21.93781  22.10398  43.47930
          Condensed to atoms (all electrons):
               1          2          3          4          5          6
     1  O    7.885601   0.563493  -0.050499  -0.117778   0.001711   0.014365
     2  C    0.563493   4.742680   0.429480   0.175868  -0.022019   0.028547
     3  H   -0.050499   0.429480   0.646225  -0.178613   0.003092   0.042632
     4  C   -0.117778   0.175868  -0.178613   5.545334   0.403299   0.329801
     5  H    0.001711  -0.022019   0.003092   0.403299   0.474689  -0.033084
     6  C    0.014365   0.028547   0.042632   0.329801  -0.033084   5.065509
     7  H    0.000306  -0.003811   0.001528  -0.054220   0.003757   0.420089
     8  H   -0.000394   0.003518  -0.000528  -0.020460  -0.004579   0.399379
               7          8
     1  O    0.000306  -0.000394
     2  C   -0.003811   0.003518
     3  H    0.001528  -0.000528
     4  C   -0.054220  -0.020460
     5  H    0.003757  -0.004579
     6  C    0.420089   0.399379
     7  H    0.511772  -0.022651
     8  H   -0.022651   0.503734
 Mulliken charges:
               1
     1  O   -0.296805
     2  C    0.082243
     3  H    0.106684
     4  C   -0.083231
     5  H    0.173134
     6  C   -0.267238
     7  H    0.143231
     8  H    0.141981
 Sum of Mulliken charges =  -0.00000
 Mulliken charges with hydrogens summed into heavy atoms:
               1
     1  O   -0.296805
     2  C    0.188927
     4  C    0.089903
     6  C    0.017975
 Electronic spatial extent (au):  <R**2>=            309.6853
 Charge=             -0.0000 electrons
 Dipole moment (field-independent basis, Debye):
    X=              2.8396    Y=              2.0190    Z=             -0.0000  Tot=              3.4842
 Quadrupole moment (field-independent basis, Debye-Ang):
   XX=            -25.3234   YY=            -24.0830   ZZ=            -25.4947
   XY=             -3.5928   XZ=              0.0000   YZ=             -0.0000
 Traceless Quadrupole moment (field-independent basis, Debye-Ang):
   XX=             -0.3564   YY=              0.8841   ZZ=             -0.5277
   XY=             -3.5928   XZ=              0.0000   YZ=             -0.0000
 Octapole moment (field-independent basis, Debye-Ang**2):
  XXX=              3.9430  YYY=              6.2205  ZZZ=              0.0000  XYY=              5.8721
  XXY=              4.5984  XXZ=              0.0000  XZZ=             -2.6880  YZZ=             -3.7830
  YYZ=              0.0000  XYZ=              0.0000
 Hexadecapole moment (field-independent basis, Debye-Ang**3):
 XXXX=           -155.4744 YYYY=           -212.9673 ZZZZ=            -27.8519 XXXY=            -65.7519
 XXXZ=             -0.0000 YYYX=            -64.6897 YYYZ=             -0.0000 ZZZX=             -0.0000
 ZZZY=             -0.0000 XXYY=            -64.9661 XXZZ=            -32.0721 YYZZ=            -44.0138
 XXYZ=             -0.0000 YYXZ=             -0.0000 ZZXY=            -21.4139
 N-N= 1.009303217978D+02 E-N=-6.499360485849D+02  KE= 1.908510536649D+02
 Symmetry A'   KE= 1.850839935505D+02
 Symmetry A"   KE= 5.767060114395D+00
 No NMR shielding tensors so no spin-rotation constants.
 Leave Link  601 at Fri Mar  1 15:31:24 2024, MaxMem= 14763950080 cpu:               3.0 elap:               0.2
 (Enter /apps/gaussian/g16-c01-avx2/g16/l701.exe)
 ... and contract with generalized density number  0.
 Compute integral first derivatives.
 Leave Link  701 at Fri Mar  1 15:31:25 2024, MaxMem= 14763950080 cpu:               3.0 elap:               0.1
 (Enter /apps/gaussian/g16-c01-avx2/g16/l702.exe)
 L702 exits ... SP integral derivatives will be done elsewhere.
 Leave Link  702 at Fri Mar  1 15:31:25 2024, MaxMem= 14763950080 cpu:               0.4 elap:               0.0
 (Enter /apps/gaussian/g16-c01-avx2/g16/l703.exe)
 Integral derivatives from FoFJK, PRISM(SPDF).
 Compute integral first derivatives, UseDBF=F ICtDFT=           0.
 Calling FoFJK, ICntrl=      2127 FMM=F ISym2X=1 I1Cent= 0 IOpClX= 0 NMat=1 NMatS=1 NMatT=0.
 FoFJK:  IHMeth= 1 ICntrl=    2127 DoSepK=T KAlg= 0 I1Cent=           0 FoldK=F
 IRaf=         1 NMat=       1 IRICut=       1 DoRegI=T DoRafI=F ISym2E= 1 IDoP0=0 IntGTp=1.
 FoFCou: FMM=F IPFlag=           0 FMFlag=      100000 FMFlg1=         800
         NFxFlg=           0 DoJE=F BraDBF=F KetDBF=F FulRan=T
         wScrn=  0.000000 ICntrl=      2527 IOpCl=  0 I1Cent=           0 NGrid=           0
         NMat0=    1 NMatS0=      1 NMatT0=    0 NMatD0=    1 NMtDS0=    0 NMtDT0=    0
 Petite list used in FoFCou.
 Leave Link  703 at Fri Mar  1 15:31:27 2024, MaxMem= 14763950080 cpu:              12.9 elap:               0.4
 (Enter /apps/gaussian/g16-c01-avx2/g16/l716.exe)
 Dipole        = 1.11717908D+00 7.94316510D-01-1.08245581D-17
 ***** Axes restored to original set *****
 -------------------------------------------------------------------
 Center     Atomic                   Forces (Hartrees/Bohr)
 Number     Number              X              Y              Z
 -------------------------------------------------------------------
      1        8          -0.074859834   -0.005087025   -0.000177643
      2        6           0.077354346    0.060261701    0.002104385
      3        1          -0.013403046   -0.014297451   -0.000499278
      4        6          -0.030309531   -0.041943399   -0.001464696
      5        1           0.011000239    0.003003717    0.000104892
      6        6           0.045185400   -0.000689692   -0.000024085
      7        1          -0.007700803   -0.006401480   -0.000223545
      8        1          -0.007266772    0.005153628    0.000179969
 -------------------------------------------------------------------
 Cartesian Forces:  Max     0.077354346 RMS     0.029344104
 Leave Link  716 at Fri Mar  1 15:31:27 2024, MaxMem= 14763950080 cpu:               0.4 elap:               0.0
 (Enter /apps/gaussian/g16-c01-avx2/g16/l103.exe)

 GradGradGradGradGradGradGradGradGradGradGradGradGradGradGradGradGradGrad
 Berny optimization.
 FormGI is forming the generalized inverse of G from B-inverse, IUseBI=4.
 Internal  Forces:  Max     0.074859762 RMS     0.019544796
 Search for a local minimum.
 Step number   1 out of a maximum of   34
 All quantities printed in internal units (Hartrees-Bohrs-Radians)
 RMS Force = .19545D-01 SwitMx=.10000D-02 MixMth= 1
 Mixed Optimization -- RFO/linear search
 Second derivative matrix not updated -- first step.
 ITU=  0
     Eigenvalues ---    0.00237   0.00237   0.01459   0.02681   0.02681
     Eigenvalues ---    0.16000   0.16000   0.16000   0.16000   0.22000
     Eigenvalues ---    0.22000   0.28519   0.37230   0.37230   0.37230
     Eigenvalues ---    0.37230   0.53930   0.80209
 RFO step:  Lambda=-1.74514777D-02 EMin= 2.36824146D-03
 Linear search not attempted -- first point.
 Iteration  1 RMS(Cart)=  0.05465334 RMS(Int)=  0.00074353
 Iteration  2 RMS(Cart)=  0.00092788 RMS(Int)=  0.00000054
 Iteration  3 RMS(Cart)=  0.00000055 RMS(Int)=  0.00000000
 ITry= 1 IFail=0 DXMaxC= 1.10D-01 DCOld= 1.00D+10 DXMaxT= 3.00D-01 DXLimC= 3.00D+00 Rises=F
 ClnCor:  largest displacement from symmetrization is 1.03D-08 for atom     7.
 Variable       Old X    -DE/DX   Delta X   Delta X   Delta X     New X
                                 (Linear)    (Quad)   (Total)
    R1        2.37803  -0.07486   0.00000  -0.09134  -0.09134   2.28669
    R2        2.02201   0.01911   0.00000   0.04903   0.04903   2.07103
    R3        2.91018  -0.04090   0.00000  -0.13514  -0.13514   2.77504
    R4        2.02201   0.00813   0.00000   0.02087   0.02087   2.04288
    R5        2.56096  -0.03023   0.00000  -0.05430  -0.05430   2.50666
    R6        2.02201   0.00943   0.00000   0.02420   0.02420   2.04621
    R7        2.02201   0.00807   0.00000   0.02070   0.02070   2.04271
    A1        2.09836  -0.00108   0.00000   0.00174   0.00174   2.10010
    A2        2.09241   0.01102   0.00000   0.04641   0.04641   2.13883
    A3        2.09241  -0.00994   0.00000  -0.04815  -0.04815   2.04426
    A4        2.09241  -0.00900   0.00000  -0.04939  -0.04939   2.04302
    A5        2.09836   0.00183   0.00000   0.00773   0.00773   2.10608
    A6        2.09241   0.00716   0.00000   0.04167   0.04167   2.13408
    A7        2.09836   0.00200   0.00000   0.01127   0.01127   2.10963
    A8        2.09241   0.00282   0.00000   0.01590   0.01590   2.10831
    A9        2.09241  -0.00482   0.00000  -0.02717  -0.02717   2.06525
    D1       -0.00000   0.00000   0.00000   0.00000   0.00000   0.00000
    D2        3.14159   0.00000   0.00000   0.00000   0.00000   3.14159
    D3        3.14159  -0.00000   0.00000  -0.00000   0.00000   3.14159
    D4        0.00000  -0.00000   0.00000  -0.00000  -0.00000   0.00000
    D5       -0.00000  -0.00000   0.00000  -0.00000   0.00000   0.00000
    D6        3.14159   0.00000   0.00000   0.00000   0.00000  -3.14159
    D7       -3.14159  -0.00000   0.00000  -0.00000  -0.00000   3.14159
    D8       -0.00000  -0.00000   0.00000  -0.00000   0.00000   0.00000
         Item               Value     Threshold  Converged?
 Maximum Force            0.074860     0.000450     NO 
 RMS     Force            0.019545     0.000300     NO 
 Maximum Displacement     0.110305     0.001800     NO 
 RMS     Displacement     0.055279     0.001200     NO 
 Predicted change in Energy=-9.103007D-03
 Lowest energy point so far.  Saving SCF results.
 GradGradGradGradGradGradGradGradGradGradGradGradGradGradGradGradGradGrad

 Leave Link  103 at Fri Mar  1 15:31:27 2024, MaxMem= 14763950080 cpu:               0.6 elap:               0.0
 (Enter /apps/gaussian/g16-c01-avx2/g16/l202.exe)
                          Input orientation:                          
 ---------------------------------------------------------------------
 Center     Atomic      Atomic             Coordinates (Angstroms)
 Number     Number       Type             X           Y           Z
 ---------------------------------------------------------------------
      1          8           0       -3.857055    0.715766   -0.267914
      2          6           0       -5.066526    0.753613   -0.266592
      3          1           0       -5.649234   -0.174016   -0.298986
      4          6           0       -5.817404    2.014842   -0.222549
      5          1           0       -5.241481    2.929145   -0.190621
      6          6           0       -7.143871    2.012931   -0.222616
      7          1           0       -7.698152    1.083315   -0.255079
      8          1           0       -7.698661    2.940091   -0.190239
 ---------------------------------------------------------------------
                    Distance matrix (angstroms):
                    1          2          3          4          5
     1  O    0.000000
     2  C    1.210063   0.000000
     3  H    2.001145   1.095944   0.000000
     4  C    2.352153   1.468488   2.196639   0.000000
     5  H    2.611830   2.183878   3.131711   1.081045   0.000000
     6  C    3.533814   2.429646   2.650001   1.326468   2.111767
     7  H    3.858663   2.652224   2.404345   2.099051   3.073513
     8  H    4.439773   3.422667   3.729563   2.096725   2.457204
                    6          7          8
     6  C    0.000000
     7  H    1.082806   0.000000
     8  H    1.080956   1.857908   0.000000
 Stoichiometry    C3H4O
 Framework group  CS[SG(C3H4O)]
 Deg. of freedom    13
 Full point group                 CS      NOp   2
 RotChk:  IX=0 Diff= 7.08D-03
 Largest Abelian subgroup         CS      NOp   2
 Largest concise Abelian subgroup C1      NOp   1
                         Standard orientation:                         
 ---------------------------------------------------------------------
 Center     Atomic      Atomic             Coordinates (Angstroms)
 Number     Number       Type             X           Y           Z
 ---------------------------------------------------------------------
      1          8           0       -1.207823   -1.306595   -0.000000
      2          6           0       -0.133013   -0.750684   -0.000000
      3          1           0        0.793096   -1.336701   -0.000000
      4          6           0       -0.000000    0.711767    0.000000
      5          1           0       -0.914236    1.288682    0.000000
      6          6           0        1.197522    1.282258    0.000000
      7          1           0        2.098843    0.682185   -0.000000
      8          1           0        1.297830    2.358550    0.000000
 ---------------------------------------------------------------------
 Rotational constants (GHZ):          47.7253061           4.7292393           4.3028567
 Leave Link  202 at Fri Mar  1 15:31:27 2024, MaxMem= 14763950080 cpu:               0.2 elap:               0.0
 (Enter /apps/gaussian/g16-c01-avx2/g16/l301.exe)
 Standard basis: TZVP (5D, 7F)
 Ernie: Thresh=  0.10000D-02 Tol=  0.10000D-05 Strict=F.
 There are    80 symmetry adapted cartesian basis functions of A'  symmetry.
 There are    24 symmetry adapted cartesian basis functions of A"  symmetry.
 There are    76 symmetry adapted basis functions of A'  symmetry.
 There are    24 symmetry adapted basis functions of A"  symmetry.
   100 basis functions,   172 primitive gaussians,   104 cartesian basis functions
    15 alpha electrons       15 beta electrons
       nuclear repulsion energy       103.5996702848 Hartrees.
 IExCor=20419 DFT=T Ex+Corr=CAM-B3LYP ExCW=0 ScaHFX=  1.000000
 ScaDFX=  1.000000  1.000000  1.000000  0.810000 ScalE2=  1.000000  1.000000
 IRadAn=      5 IRanWt=     -1 IRanGd=            0 ICorTp=0 IEmpDi=  4
 HFx  wShort=  0.000000 wLong=  0.330000 cFull=  0.190000 cShort=  0.000000 cLong=  0.460000
 DFx  wShort=  0.000000 wLong=  0.330000 cFull=  0.190000 cShort=  0.000000 cLong=  0.460000
 NAtoms=    8 NActive=    8 NUniq=    8 SFac= 1.00D+00 NAtFMM=   60 NAOKFM=F Big=F
 Integral buffers will be    131072 words long.
 Raffenetti 2 integral format.
 Two-electron integral symmetry is turned on.
 Leave Link  301 at Fri Mar  1 15:31:27 2024, MaxMem= 14763950080 cpu:               0.8 elap:               0.0
 (Enter /apps/gaussian/g16-c01-avx2/g16/l302.exe)
 NPDir=0 NMtPBC=     1 NCelOv=     1 NCel=       1 NClECP=     1 NCelD=      1
         NCelK=      1 NCelE2=     1 NClLst=     1 CellRange=     0.0.
 One-electron integrals computed using PRISM.
 One-electron integral symmetry used in STVInt
 NBasis=   100 RedAO= T EigKep=  3.69D-04  NBF=    76    24
 NBsUse=   100 1.00D-06 EigRej= -1.00D+00 NBFU=    76    24
 Precomputing XC quadrature grid using
 IXCGrd= 4 IRadAn=           5 IRanWt=          -1 IRanGd=           0 AccXCQ= 0.00D+00.
 Generated NRdTot=       0 NPtTot=           0 NUsed=           0 NTot=          32
 NSgBfM=   104   104   104   104   104 MxSgAt=     8 MxSgA2=     8.
 Leave Link  302 at Fri Mar  1 15:31:27 2024, MaxMem= 14763950080 cpu:               3.6 elap:               0.1
 (Enter /apps/gaussian/g16-c01-avx2/g16/l303.exe)
 DipDrv:  MaxL=1.
 Leave Link  303 at Fri Mar  1 15:31:27 2024, MaxMem= 14763950080 cpu:               0.6 elap:               0.0
 (Enter /apps/gaussian/g16-c01-avx2/g16/l401.exe)
 Initial guess from the checkpoint file:  "Acrolein1.chk"
 B after Tr=     0.000000    0.000000    0.000000
         Rot=    0.999993    0.000000    0.000000    0.003610 Ang=   0.41 deg.
 Guess basis will be translated and rotated to current coordinates.
 JPrj=2 DoOrth=T DoCkMO=T.
 Initial guess orbital symmetries:
       Occupied  (A') (A') (A') (A') (A') (A') (A') (A') (A') (A')
                 (A') (A') (A") (A") (A')
       Virtual   (A") (A") (A') (A') (A') (A') (A') (A') (A') (A")
                 (A') (A") (A') (A") (A') (A') (A') (A') (A') (A')
                 (A') (A') (A') (A") (A') (A') (A') (A') (A') (A")
                 (A') (A") (A') (A") (A') (A') (A") (A') (A') (A")
                 (A") (A') (A') (A") (A') (A') (A') (A') (A') (A")
                 (A') (A") (A') (A") (A') (A") (A') (A') (A') (A")
                 (A') (A") (A') (A') (A") (A') (A') (A') (A") (A')
                 (A') (A') (A') (A') (A') (A") (A') (A') (A') (A')
                 (A') (A') (A') (A') (A')
 The electronic state of the initial guess is 1-A'.
 Generating alternative initial guess.
 ExpMin= 9.52D-02 ExpMax= 2.70D+04 ExpMxC= 9.22D+02 IAcc=3 IRadAn=         5 AccDes= 0.00D+00
 Harris functional with IExCor=20419 and IRadAn=       5 diagonalized for initial guess.
 HarFok:  IExCor=20419 AccDes= 0.00D+00 IRadAn=         5 IDoV= 1 UseB2=F ITyADJ=14
 ICtDFT=  3500011 ScaDFX=  1.000000  1.000000  1.000000  1.000000
 FoFCou: FMM=F IPFlag=           0 FMFlag=      100000 FMFlg1=           0
         NFxFlg=           0 DoJE=T BraDBF=F KetDBF=T FulRan=T
         wScrn=  0.000000 ICntrl=       500 IOpCl=  0 I1Cent=   200000004 NGrid=           0
         NMat0=    1 NMatS0=      1 NMatT0=    0 NMatD0=    1 NMtDS0=    0 NMtDT0=    0
 Petite list used in FoFCou.
 Harris En= -184.687422794598    
 Leave Link  401 at Fri Mar  1 15:31:28 2024, MaxMem= 14763950080 cpu:               6.6 elap:               0.2
 (Enter /apps/gaussian/g16-c01-avx2/g16/l502.exe)
 Keep R1 ints in memory in symmetry-blocked form, NReq=55822198.
 FoFCou: FMM=F IPFlag=           0 FMFlag=           0 FMFlg1=           0
         NFxFlg=           0 DoJE=F BraDBF=F KetDBF=F FulRan=T
         wScrn=  0.000000 ICntrl=       600 IOpCl=  0 I1Cent=           0 NGrid=           0
         NMat0=    1 NMatS0=   5050 NMatT0=    0 NMatD0=    1 NMtDS0=    0 NMtDT0=    0
 Petite list used in FoFCou.
 Closed shell SCF:
 Using DIIS extrapolation, IDIIS=  1040.
 NGot= 14763950080 LenX= 14757042551 LenY= 14757031294
 Requested convergence on RMS density matrix=1.00D-08 within 128 cycles.
 Requested convergence on MAX density matrix=1.00D-06.
 Requested convergence on             energy=1.00D-06.
 No special actions if energy rises.
 Integral accuracy reduced to 1.0D-05 until final iterations.

 Cycle   1  Pass 0  IDiag  1:
 E= -191.884302277456    
 DIIS: error= 4.98D-03 at cycle   1 NSaved=   1.
 NSaved= 1 IEnMin= 1 EnMin= -191.884302277456     IErMin= 1 ErrMin= 4.98D-03
 ErrMax= 4.98D-03  0.00D+00 EMaxC= 1.00D-01 BMatC= 3.49D-03 BMatP= 3.49D-03
 IDIUse=3 WtCom= 9.50D-01 WtEn= 4.98D-02
 Coeff-Com:  0.100D+01
 Coeff-En:   0.100D+01
 Coeff:      0.100D+01
 Gap=     0.313 Goal=   None    Shift=    0.000
 GapD=    0.313 DampG=1.000 DampE=1.000 DampFc=1.0000 IDamp=-1.
 RMSDP=7.52D-04 MaxDP=1.83D-02              OVMax= 1.77D-02

 Cycle   2  Pass 0  IDiag  1:
 E= -191.887654740544     Delta-E=       -0.003352463087 Rises=F Damp=F
 DIIS: error= 2.11D-03 at cycle   2 NSaved=   2.
 NSaved= 2 IEnMin= 2 EnMin= -191.887654740544     IErMin= 2 ErrMin= 2.11D-03
 ErrMax= 2.11D-03  0.00D+00 EMaxC= 1.00D-01 BMatC= 3.72D-04 BMatP= 3.49D-03
 IDIUse=3 WtCom= 9.79D-01 WtEn= 2.11D-02
 Coeff-Com:  0.122D+00 0.878D+00
 Coeff-En:   0.000D+00 0.100D+01
 Coeff:      0.119D+00 0.881D+00
 Gap=     0.305 Goal=   None    Shift=    0.000
 RMSDP=4.45D-04 MaxDP=1.72D-02 DE=-3.35D-03 OVMax= 1.14D-02

 Cycle   3  Pass 0  IDiag  1:
 E= -191.887801556859     Delta-E=       -0.000146816315 Rises=F Damp=F
 DIIS: error= 2.15D-03 at cycle   3 NSaved=   3.
 NSaved= 3 IEnMin= 3 EnMin= -191.887801556859     IErMin= 2 ErrMin= 2.11D-03
 ErrMax= 2.15D-03  0.00D+00 EMaxC= 1.00D-01 BMatC= 2.43D-04 BMatP= 3.72D-04
 IDIUse=3 WtCom= 9.78D-01 WtEn= 2.15D-02
 Coeff-Com: -0.362D-01 0.443D+00 0.593D+00
 Coeff-En:   0.000D+00 0.345D+00 0.655D+00
 Coeff:     -0.355D-01 0.441D+00 0.595D+00
 Gap=     0.309 Goal=   None    Shift=    0.000
 RMSDP=1.83D-04 MaxDP=6.44D-03 DE=-1.47D-04 OVMax= 8.25D-03

 Cycle   4  Pass 0  IDiag  1:
 E= -191.888003532031     Delta-E=       -0.000201975172 Rises=F Damp=F
 DIIS: error= 5.46D-04 at cycle   4 NSaved=   4.
 NSaved= 4 IEnMin= 4 EnMin= -191.888003532031     IErMin= 4 ErrMin= 5.46D-04
 ErrMax= 5.46D-04  0.00D+00 EMaxC= 1.00D-01 BMatC= 1.93D-05 BMatP= 2.43D-04
 IDIUse=3 WtCom= 9.95D-01 WtEn= 5.46D-03
 Coeff-Com: -0.248D-01 0.146D+00 0.302D+00 0.577D+00
 Coeff-En:   0.000D+00 0.000D+00 0.000D+00 0.100D+01
 Coeff:     -0.247D-01 0.145D+00 0.300D+00 0.579D+00
 Gap=     0.308 Goal=   None    Shift=    0.000
 RMSDP=5.05D-05 MaxDP=1.72D-03 DE=-2.02D-04 OVMax= 1.33D-03

 Cycle   5  Pass 0  IDiag  1:
 E= -191.888018694004     Delta-E=       -0.000015161973 Rises=F Damp=F
 DIIS: error= 1.42D-04 at cycle   5 NSaved=   5.
 NSaved= 5 IEnMin= 5 EnMin= -191.888018694004     IErMin= 5 ErrMin= 1.42D-04
 ErrMax= 1.42D-04  0.00D+00 EMaxC= 1.00D-01 BMatC= 1.60D-06 BMatP= 1.93D-05
 IDIUse=3 WtCom= 9.99D-01 WtEn= 1.42D-03
 Coeff-Com: -0.612D-02 0.110D-01 0.692D-01 0.259D+00 0.667D+00
 Coeff-En:   0.000D+00 0.000D+00 0.000D+00 0.000D+00 0.100D+01
 Coeff:     -0.611D-02 0.110D-01 0.691D-01 0.258D+00 0.668D+00
 Gap=     0.308 Goal=   None    Shift=    0.000
 RMSDP=1.48D-05 MaxDP=2.11D-04 DE=-1.52D-05 OVMax= 4.65D-04

 Cycle   6  Pass 0  IDiag  1:
 E= -191.888019897681     Delta-E=       -0.000001203677 Rises=F Damp=F
 DIIS: error= 8.26D-05 at cycle   6 NSaved=   6.
 NSaved= 6 IEnMin= 6 EnMin= -191.888019897681     IErMin= 6 ErrMin= 8.26D-05
 ErrMax= 8.26D-05  0.00D+00 EMaxC= 1.00D-01 BMatC= 3.77D-07 BMatP= 1.60D-06
 IDIUse=1 WtCom= 1.00D+00 WtEn= 0.00D+00
 Coeff-Com:  0.804D-03-0.191D-01-0.977D-02 0.515D-01 0.374D+00 0.602D+00
 Coeff:      0.804D-03-0.191D-01-0.977D-02 0.515D-01 0.374D+00 0.602D+00
 Gap=     0.308 Goal=   None    Shift=    0.000
 RMSDP=7.30D-06 MaxDP=2.01D-04 DE=-1.20D-06 OVMax= 1.92D-04

 Initial convergence to 1.0D-05 achieved.  Increase integral accuracy.
 Cycle   7  Pass 1  IDiag  1:
 E= -191.888020569976     Delta-E=       -0.000000672295 Rises=F Damp=F
 DIIS: error= 4.27D-06 at cycle   1 NSaved=   1.
 NSaved= 1 IEnMin= 1 EnMin= -191.888020569976     IErMin= 1 ErrMin= 4.27D-06
 ErrMax= 4.27D-06  0.00D+00 EMaxC= 1.00D-01 BMatC= 3.26D-09 BMatP= 3.26D-09
 IDIUse=1 WtCom= 1.00D+00 WtEn= 0.00D+00
 Coeff-Com:  0.100D+01
 Coeff:      0.100D+01
 Gap=     0.308 Goal=   None    Shift=    0.000
 RMSDP=7.30D-06 MaxDP=2.01D-04 DE=-6.72D-07 OVMax= 4.99D-05

 Cycle   8  Pass 1  IDiag  1:
 E= -191.888020576703     Delta-E=       -0.000000006727 Rises=F Damp=F
 DIIS: error= 5.13D-06 at cycle   2 NSaved=   2.
 NSaved= 2 IEnMin= 2 EnMin= -191.888020576703     IErMin= 1 ErrMin= 4.27D-06
 ErrMax= 5.13D-06  0.00D+00 EMaxC= 1.00D-01 BMatC= 1.16D-09 BMatP= 3.26D-09
 IDIUse=1 WtCom= 1.00D+00 WtEn= 0.00D+00
 Coeff-Com:  0.326D+00 0.674D+00
 Coeff:      0.326D+00 0.674D+00
 Gap=     0.308 Goal=   None    Shift=    0.000
 RMSDP=5.13D-07 MaxDP=1.10D-05 DE=-6.73D-09 OVMax= 2.43D-05

 Cycle   9  Pass 1  IDiag  1:
 E= -191.888020578002     Delta-E=       -0.000000001299 Rises=F Damp=F
 DIIS: error= 1.89D-06 at cycle   3 NSaved=   3.
 NSaved= 3 IEnMin= 3 EnMin= -191.888020578002     IErMin= 3 ErrMin= 1.89D-06
 ErrMax= 1.89D-06  0.00D+00 EMaxC= 1.00D-01 BMatC= 3.27D-10 BMatP= 1.16D-09
 IDIUse=1 WtCom= 1.00D+00 WtEn= 0.00D+00
 Coeff-Com: -0.951D-01 0.289D+00 0.806D+00
 Coeff:     -0.951D-01 0.289D+00 0.806D+00
 Gap=     0.308 Goal=   None    Shift=    0.000
 RMSDP=4.18D-07 MaxDP=8.34D-06 DE=-1.30D-09 OVMax= 1.02D-05

 Cycle  10  Pass 1  IDiag  1:
 E= -191.888020578414     Delta-E=       -0.000000000412 Rises=F Damp=F
 DIIS: error= 8.82D-07 at cycle   4 NSaved=   4.
 NSaved= 4 IEnMin= 4 EnMin= -191.888020578414     IErMin= 4 ErrMin= 8.82D-07
 ErrMax= 8.82D-07  0.00D+00 EMaxC= 1.00D-01 BMatC= 4.52D-11 BMatP= 3.27D-10
 IDIUse=1 WtCom= 1.00D+00 WtEn= 0.00D+00
 Coeff-Com: -0.976D-01 0.483D-01 0.390D+00 0.659D+00
 Coeff:     -0.976D-01 0.483D-01 0.390D+00 0.659D+00
 Gap=     0.308 Goal=   None    Shift=    0.000
 RMSDP=1.24D-07 MaxDP=2.66D-06 DE=-4.12D-10 OVMax= 3.15D-06

 Cycle  11  Pass 1  IDiag  1:
 E= -191.888020578462     Delta-E=       -0.000000000048 Rises=F Damp=F
 DIIS: error= 3.68D-07 at cycle   5 NSaved=   5.
 NSaved= 5 IEnMin= 5 EnMin= -191.888020578462     IErMin= 5 ErrMin= 3.68D-07
 ErrMax= 3.68D-07  0.00D+00 EMaxC= 1.00D-01 BMatC= 4.86D-12 BMatP= 4.52D-11
 IDIUse=1 WtCom= 1.00D+00 WtEn= 0.00D+00
 Coeff-Com: -0.348D-01 0.656D-02 0.118D+00 0.312D+00 0.598D+00
 Coeff:     -0.348D-01 0.656D-02 0.118D+00 0.312D+00 0.598D+00
 Gap=     0.308 Goal=   None    Shift=    0.000
 RMSDP=2.46D-08 MaxDP=7.64D-07 DE=-4.84D-11 OVMax= 1.52D-06

 Cycle  12  Pass 1  IDiag  1:
 E= -191.888020578466     Delta-E=       -0.000000000004 Rises=F Damp=F
 DIIS: error= 1.17D-07 at cycle   6 NSaved=   6.
 NSaved= 6 IEnMin= 6 EnMin= -191.888020578466     IErMin= 6 ErrMin= 1.17D-07
 ErrMax= 1.17D-07  0.00D+00 EMaxC= 1.00D-01 BMatC= 1.16D-12 BMatP= 4.86D-12
 IDIUse=1 WtCom= 1.00D+00 WtEn= 0.00D+00
 Coeff-Com: -0.360D-02-0.740D-02-0.798D-02 0.545D-01 0.348D+00 0.616D+00
 Coeff:     -0.360D-02-0.740D-02-0.798D-02 0.545D-01 0.348D+00 0.616D+00
 Gap=     0.308 Goal=   None    Shift=    0.000
 RMSDP=2.17D-08 MaxDP=8.47D-07 DE=-3.69D-12 OVMax= 3.11D-07

 Cycle  13  Pass 1  IDiag  1:
 E= -191.888020578467     Delta-E=       -0.000000000001 Rises=F Damp=F
 DIIS: error= 1.11D-08 at cycle   7 NSaved=   7.
 NSaved= 7 IEnMin= 7 EnMin= -191.888020578467     IErMin= 7 ErrMin= 1.11D-08
 ErrMax= 1.11D-08  0.00D+00 EMaxC= 1.00D-01 BMatC= 1.72D-14 BMatP= 1.16D-12
 IDIUse=1 WtCom= 1.00D+00 WtEn= 0.00D+00
 Coeff-Com:  0.277D-02-0.649D-03-0.120D-01-0.190D-01 0.276D-01 0.304D-01
 Coeff-Com:  0.971D+00
 Coeff:      0.277D-02-0.649D-03-0.120D-01-0.190D-01 0.276D-01 0.304D-01
 Coeff:      0.971D+00
 Gap=     0.308 Goal=   None    Shift=    0.000
 RMSDP=7.01D-09 MaxDP=2.94D-07 DE=-1.08D-12 OVMax= 5.92D-08

 SCF Done:  E(RCAM-B3LYP) =  -191.888020578     A.U. after   13 cycles
            NFock= 13  Conv=0.70D-08     -V/T= 2.0039
 KE= 1.911436027237D+02 PE=-6.554856148523D+02 EE= 1.688543212653D+02
 Leave Link  502 at Fri Mar  1 15:31:29 2024, MaxMem= 14763950080 cpu:              28.1 elap:               1.0
 (Enter /apps/gaussian/g16-c01-avx2/g16/l701.exe)
 ... and contract with generalized density number  0.
 Compute integral first derivatives.
 Leave Link  701 at Fri Mar  1 15:31:29 2024, MaxMem= 14763950080 cpu:               3.2 elap:               0.1
 (Enter /apps/gaussian/g16-c01-avx2/g16/l702.exe)
 L702 exits ... SP integral derivatives will be done elsewhere.
 Leave Link  702 at Fri Mar  1 15:31:29 2024, MaxMem= 14763950080 cpu:               0.4 elap:               0.0
 (Enter /apps/gaussian/g16-c01-avx2/g16/l703.exe)
 Integral derivatives from FoFJK, PRISM(SPDF).
 Compute integral first derivatives, UseDBF=F ICtDFT=           0.
 Calling FoFJK, ICntrl=      2127 FMM=F ISym2X=1 I1Cent= 0 IOpClX= 0 NMat=1 NMatS=1 NMatT=0.
 FoFJK:  IHMeth= 1 ICntrl=    2127 DoSepK=T KAlg= 0 I1Cent=           0 FoldK=F
 IRaf=         1 NMat=       1 IRICut=       1 DoRegI=T DoRafI=F ISym2E= 1 IDoP0=0 IntGTp=1.
 FoFCou: FMM=F IPFlag=           0 FMFlag=      100000 FMFlg1=         800
         NFxFlg=           0 DoJE=F BraDBF=F KetDBF=F FulRan=T
         wScrn=  0.000000 ICntrl=      2527 IOpCl=  0 I1Cent=           0 NGrid=           0
         NMat0=    1 NMatS0=      1 NMatT0=    0 NMatD0=    1 NMtDS0=    0 NMtDT0=    0
 Petite list used in FoFCou.
 Leave Link  703 at Fri Mar  1 15:31:29 2024, MaxMem= 14763950080 cpu:              12.9 elap:               0.4
 (Enter /apps/gaussian/g16-c01-avx2/g16/l716.exe)
 Dipole        = 1.04608534D+00 8.19831382D-01 2.56289774D-17
 ***** Axes restored to original set *****
 -------------------------------------------------------------------
 Center     Atomic                   Forces (Hartrees/Bohr)
 Number     Number              X              Y              Z
 -------------------------------------------------------------------
      1        8          -0.006660388   -0.002472000   -0.000086324
      2        6           0.017465265    0.008733536    0.000304982
      3        1          -0.005417774   -0.004154002   -0.000145061
      4        6          -0.006678899   -0.004351669   -0.000151964
      5        1           0.001876675    0.000424280    0.000014816
      6        6           0.003847277    0.002676783    0.000093475
      7        1          -0.001739325    0.000074386    0.000002598
      8        1          -0.002692831   -0.000931314   -0.000032522
 -------------------------------------------------------------------
 Cartesian Forces:  Max     0.017465265 RMS     0.004911327
 Leave Link  716 at Fri Mar  1 15:31:29 2024, MaxMem= 14763950080 cpu:               0.4 elap:               0.0
 (Enter /apps/gaussian/g16-c01-avx2/g16/l103.exe)

 GradGradGradGradGradGradGradGradGradGradGradGradGradGradGradGradGradGrad
 Berny optimization.
 Using GEDIIS/GDIIS optimizer.
 FormGI is forming the generalized inverse of G from B-inverse, IUseBI=4.
 Internal  Forces:  Max     0.006579664 RMS     0.002719916
 Search for a local minimum.
 Step number   2 out of a maximum of   34
 All quantities printed in internal units (Hartrees-Bohrs-Radians)
 RMS Force = .27199D-02 SwitMx=.10000D-02 MixMth= 1
 Mixed Optimization -- RFO/linear search
 Update second derivatives using D2CorX and points    1    2
 DE= -9.89D-03 DEPred=-9.10D-03 R= 1.09D+00
 TightC=F SS=  1.41D+00  RLast= 2.08D-01 DXNew= 5.0454D-01 6.2380D-01
 Trust test= 1.09D+00 RLast= 2.08D-01 DXMaxT set to 5.05D-01
 ITU=  1  0
 Use linear search instead of GDIIS.
     Eigenvalues ---    0.00237   0.00237   0.01522   0.02681   0.02681
     Eigenvalues ---    0.15267   0.16000   0.16000   0.16099   0.20984
     Eigenvalues ---    0.22011   0.30689   0.36041   0.37230   0.37230
     Eigenvalues ---    0.37384   0.54930   0.77921
 RFO step:  Lambda=-5.49674075D-04 EMin= 2.36824146D-03
 Quartic linear search produced a step of  0.08888.
 Iteration  1 RMS(Cart)=  0.01278728 RMS(Int)=  0.00015422
 Iteration  2 RMS(Cart)=  0.00018313 RMS(Int)=  0.00000002
 Iteration  3 RMS(Cart)=  0.00000002 RMS(Int)=  0.00000000
 ITry= 1 IFail=0 DXMaxC= 3.07D-02 DCOld= 1.00D+10 DXMaxT= 5.05D-01 DXLimC= 3.00D+00 Rises=F
 ClnCor:  largest displacement from symmetrization is 8.76D-09 for atom     7.
 Variable       Old X    -DE/DX   Delta X   Delta X   Delta X     New X
                                 (Linear)    (Quad)   (Total)
    R1        2.28669  -0.00658  -0.00812  -0.00291  -0.01103   2.27566
    R2        2.07103   0.00640   0.00436   0.01502   0.01937   2.09041
    R3        2.77504   0.00094  -0.01201   0.01442   0.00241   2.77745
    R4        2.04288   0.00136   0.00186   0.00240   0.00426   2.04714
    R5        2.50666   0.00058  -0.00483   0.00496   0.00013   2.50679
    R6        2.04621   0.00083   0.00215   0.00060   0.00275   2.04896
    R7        2.04271   0.00058   0.00184   0.00015   0.00199   2.04470
    A1        2.10010  -0.00040   0.00015   0.00214   0.00230   2.10239
    A2        2.13883   0.00573   0.00413   0.02425   0.02838   2.16720
    A3        2.04426  -0.00533  -0.00428  -0.02640  -0.03068   2.01359
    A4        2.04302  -0.00252  -0.00439  -0.01024  -0.01463   2.02839
    A5        2.10608   0.00226   0.00069   0.01050   0.01119   2.11727
    A6        2.13408   0.00026   0.00370  -0.00026   0.00345   2.13753
    A7        2.10963   0.00019   0.00100   0.00019   0.00120   2.11082
    A8        2.10831   0.00275   0.00141   0.01712   0.01854   2.12685
    A9        2.06525  -0.00294  -0.00241  -0.01732  -0.01973   2.04552
    D1        0.00000  -0.00000   0.00000  -0.00000   0.00000   0.00000
    D2       -3.14159  -0.00000   0.00000  -0.00000  -0.00000   3.14159
    D3        3.14159   0.00000   0.00000   0.00000   0.00000   3.14159
    D4        0.00000  -0.00000   0.00000  -0.00000  -0.00000   0.00000
    D5       -0.00000  -0.00000  -0.00000   0.00000   0.00000   0.00000
    D6        3.14159   0.00000   0.00000   0.00000   0.00000   3.14159
    D7        3.14159  -0.00000  -0.00000   0.00000   0.00000   3.14159
    D8       -0.00000   0.00000   0.00000  -0.00000   0.00000   0.00000
         Item               Value     Threshold  Converged?
 Maximum Force            0.006580     0.000450     NO 
 RMS     Force            0.002720     0.000300     NO 
 Maximum Displacement     0.030721     0.001800     NO 
 RMS     Displacement     0.012793     0.001200     NO 
 Predicted change in Energy=-3.691614D-04
 Lowest energy point so far.  Saving SCF results.
 GradGradGradGradGradGradGradGradGradGradGradGradGradGradGradGradGradGrad

 Leave Link  103 at Fri Mar  1 15:31:29 2024, MaxMem= 14763950080 cpu:               0.5 elap:               0.0
 (Enter /apps/gaussian/g16-c01-avx2/g16/l202.exe)
                          Input orientation:                          
 ---------------------------------------------------------------------
 Center     Atomic      Atomic             Coordinates (Angstroms)
 Number     Number       Type             X           Y           Z
 ---------------------------------------------------------------------
      1          8           0       -3.849573    0.701351   -0.268417
      2          6           0       -5.052329    0.760801   -0.266341
      3          1           0       -5.659490   -0.163311   -0.298612
      4          6           0       -5.816781    2.015353   -0.222531
      5          1           0       -5.235654    2.929032   -0.190625
      6          6           0       -7.143319    2.014668   -0.222555
      7          1           0       -7.700320    1.084981   -0.255020
      8          1           0       -7.714918    2.932812   -0.190493
 ---------------------------------------------------------------------
                    Distance matrix (angstroms):
                    1          2          3          4          5
     1  O    0.000000
     2  C    1.204226   0.000000
     3  H    2.006079   1.106196   0.000000
     4  C    2.366139   1.469764   2.185659   0.000000
     5  H    2.624850   2.177284   3.123121   1.083299   0.000000
     6  C    3.546219   2.438512   2.636499   1.326538   2.115719
     7  H    3.869832   2.667785   2.392722   2.101039   3.078839
     8  H    4.463898   3.436971   3.717856   2.108479   2.479266
                    6          7          8
     6  C    0.000000
     7  H    1.084261   0.000000
     8  H    1.082008   1.849015   0.000000
 Stoichiometry    C3H4O
 Framework group  CS[SG(C3H4O)]
 Deg. of freedom    13
 Full point group                 CS      NOp   2
 RotChk:  IX=0 Diff= 4.61D-03
 Largest Abelian subgroup         CS      NOp   2
 Largest concise Abelian subgroup C1      NOp   1
                         Standard orientation:                         
 ---------------------------------------------------------------------
 Center     Atomic      Atomic             Coordinates (Angstroms)
 Number     Number       Type             X           Y           Z
 ---------------------------------------------------------------------
      1          8           0       -1.200933   -1.323280   -0.000000
      2          6           0       -0.143377   -0.747316   -0.000000
      3          1           0        0.805135   -1.316522   -0.000000
      4          6           0       -0.000000    0.715438    0.000000
      5          1           0       -0.920526    1.286549    0.000000
      6          6           0        1.195188    1.290964    0.000000
      7          1           0        2.100939    0.694947    0.000000
      8          1           0        1.311048    2.366752    0.000000
 ---------------------------------------------------------------------
 Rotational constants (GHZ):          48.4908591           4.6894166           4.2759057
 Leave Link  202 at Fri Mar  1 15:31:29 2024, MaxMem= 14763950080 cpu:               0.2 elap:               0.0
 (Enter /apps/gaussian/g16-c01-avx2/g16/l301.exe)
 Standard basis: TZVP (5D, 7F)
 Ernie: Thresh=  0.10000D-02 Tol=  0.10000D-05 Strict=F.
 There are    80 symmetry adapted cartesian basis functions of A'  symmetry.
 There are    24 symmetry adapted cartesian basis functions of A"  symmetry.
 There are    76 symmetry adapted basis functions of A'  symmetry.
 There are    24 symmetry adapted basis functions of A"  symmetry.
   100 basis functions,   172 primitive gaussians,   104 cartesian basis functions
    15 alpha electrons       15 beta electrons
       nuclear repulsion energy       103.5060098146 Hartrees.
 IExCor=20419 DFT=T Ex+Corr=CAM-B3LYP ExCW=0 ScaHFX=  1.000000
 ScaDFX=  1.000000  1.000000  1.000000  0.810000 ScalE2=  1.000000  1.000000
 IRadAn=      5 IRanWt=     -1 IRanGd=            0 ICorTp=0 IEmpDi=  4
 HFx  wShort=  0.000000 wLong=  0.330000 cFull=  0.190000 cShort=  0.000000 cLong=  0.460000
 DFx  wShort=  0.000000 wLong=  0.330000 cFull=  0.190000 cShort=  0.000000 cLong=  0.460000
 NAtoms=    8 NActive=    8 NUniq=    8 SFac= 1.00D+00 NAtFMM=   60 NAOKFM=F Big=F
 Integral buffers will be    131072 words long.
 Raffenetti 2 integral format.
 Two-electron integral symmetry is turned on.
 Leave Link  301 at Fri Mar  1 15:31:29 2024, MaxMem= 14763950080 cpu:               0.8 elap:               0.0
 (Enter /apps/gaussian/g16-c01-avx2/g16/l302.exe)
 NPDir=0 NMtPBC=     1 NCelOv=     1 NCel=       1 NClECP=     1 NCelD=      1
         NCelK=      1 NCelE2=     1 NClLst=     1 CellRange=     0.0.
 One-electron integrals computed using PRISM.
 One-electron integral symmetry used in STVInt
 NBasis=   100 RedAO= T EigKep=  3.64D-04  NBF=    76    24
 NBsUse=   100 1.00D-06 EigRej= -1.00D+00 NBFU=    76    24
 Precomputing XC quadrature grid using
 IXCGrd= 4 IRadAn=           5 IRanWt=          -1 IRanGd=           0 AccXCQ= 0.00D+00.
 Generated NRdTot=       0 NPtTot=           0 NUsed=           0 NTot=          32
 NSgBfM=   104   104   104   104   104 MxSgAt=     8 MxSgA2=     8.
 Leave Link  302 at Fri Mar  1 15:31:30 2024, MaxMem= 14763950080 cpu:               3.8 elap:               0.1
 (Enter /apps/gaussian/g16-c01-avx2/g16/l303.exe)
 DipDrv:  MaxL=1.
 Leave Link  303 at Fri Mar  1 15:31:30 2024, MaxMem= 14763950080 cpu:               0.5 elap:               0.0
 (Enter /apps/gaussian/g16-c01-avx2/g16/l401.exe)
 Initial guess from the checkpoint file:  "Acrolein1.chk"
 B after Tr=    -0.000000   -0.000000    0.000000
         Rot=    0.999997   -0.000000   -0.000000   -0.002304 Ang=  -0.26 deg.
 Guess basis will be translated and rotated to current coordinates.
 JPrj=2 DoOrth=T DoCkMO=T.
 Initial guess orbital symmetries:
       Occupied  (A') (A') (A') (A') (A') (A') (A') (A') (A') (A')
                 (A') (A") (A') (A") (A')
       Virtual   (A") (A") (A') (A') (A') (A') (A') (A') (A") (A')
                 (A') (A") (A') (A") (A') (A') (A') (A') (A') (A')
                 (A') (A') (A') (A") (A') (A') (A') (A') (A') (A")
                 (A') (A") (A") (A') (A') (A') (A") (A') (A") (A')
                 (A") (A') (A') (A") (A') (A') (A') (A') (A') (A")
                 (A') (A") (A') (A") (A') (A") (A') (A') (A") (A')
                 (A') (A') (A") (A') (A") (A') (A') (A') (A") (A')
                 (A') (A') (A') (A') (A') (A") (A') (A') (A') (A')
                 (A') (A') (A') (A') (A')
 The electronic state of the initial guess is 1-A'.
 Generating alternative initial guess.
 ExpMin= 9.52D-02 ExpMax= 2.70D+04 ExpMxC= 9.22D+02 IAcc=3 IRadAn=         5 AccDes= 0.00D+00
 Harris functional with IExCor=20419 and IRadAn=       5 diagonalized for initial guess.
 HarFok:  IExCor=20419 AccDes= 0.00D+00 IRadAn=         5 IDoV= 1 UseB2=F ITyADJ=14
 ICtDFT=  3500011 ScaDFX=  1.000000  1.000000  1.000000  1.000000
 FoFCou: FMM=F IPFlag=           0 FMFlag=      100000 FMFlg1=           0
         NFxFlg=           0 DoJE=T BraDBF=F KetDBF=T FulRan=T
         wScrn=  0.000000 ICntrl=       500 IOpCl=  0 I1Cent=   200000004 NGrid=           0
         NMat0=    1 NMatS0=      1 NMatT0=    0 NMatD0=    1 NMtDS0=    0 NMtDT0=    0
 Petite list used in FoFCou.
 Harris En= -184.687467649171    
 Leave Link  401 at Fri Mar  1 15:31:30 2024, MaxMem= 14763950080 cpu:               6.0 elap:               0.2
 (Enter /apps/gaussian/g16-c01-avx2/g16/l502.exe)
 Keep R1 ints in memory in symmetry-blocked form, NReq=55822198.
 FoFCou: FMM=F IPFlag=           0 FMFlag=           0 FMFlg1=           0
         NFxFlg=           0 DoJE=F BraDBF=F KetDBF=F FulRan=T
         wScrn=  0.000000 ICntrl=       600 IOpCl=  0 I1Cent=           0 NGrid=           0
         NMat0=    1 NMatS0=   5050 NMatT0=    0 NMatD0=    1 NMtDS0=    0 NMtDT0=    0
 Petite list used in FoFCou.
 Closed shell SCF:
 Using DIIS extrapolation, IDIIS=  1040.
 NGot= 14763950080 LenX= 14757042551 LenY= 14757031294
 Requested convergence on RMS density matrix=1.00D-08 within 128 cycles.
 Requested convergence on MAX density matrix=1.00D-06.
 Requested convergence on             energy=1.00D-06.
 No special actions if energy rises.
 Integral accuracy reduced to 1.0D-05 until final iterations.

 Cycle   1  Pass 0  IDiag  1:
 E= -191.888123460815    
 DIIS: error= 1.09D-03 at cycle   1 NSaved=   1.
 NSaved= 1 IEnMin= 1 EnMin= -191.888123460815     IErMin= 1 ErrMin= 1.09D-03
 ErrMax= 1.09D-03  0.00D+00 EMaxC= 1.00D-01 BMatC= 2.23D-04 BMatP= 2.23D-04
 IDIUse=3 WtCom= 9.89D-01 WtEn= 1.09D-02
 Coeff-Com:  0.100D+01
 Coeff-En:   0.100D+01
 Coeff:      0.100D+01
 Gap=     0.309 Goal=   None    Shift=    0.000
 GapD=    0.309 DampG=1.000 DampE=1.000 DampFc=1.0000 IDamp=-1.
 RMSDP=2.91D-04 MaxDP=5.12D-03              OVMax= 5.95D-03

 Cycle   2  Pass 0  IDiag  1:
 E= -191.888366498218     Delta-E=       -0.000243037402 Rises=F Damp=F
 DIIS: error= 6.38D-04 at cycle   2 NSaved=   2.
 NSaved= 2 IEnMin= 2 EnMin= -191.888366498218     IErMin= 2 ErrMin= 6.38D-04
 ErrMax= 6.38D-04  0.00D+00 EMaxC= 1.00D-01 BMatC= 3.71D-05 BMatP= 2.23D-04
 IDIUse=3 WtCom= 9.94D-01 WtEn= 6.38D-03
 Coeff-Com:  0.131D+00 0.869D+00
 Coeff-En:   0.000D+00 0.100D+01
 Coeff:      0.130D+00 0.870D+00
 Gap=     0.306 Goal=   None    Shift=    0.000
 RMSDP=1.12D-04 MaxDP=3.83D-03 DE=-2.43D-04 OVMax= 3.28D-03

 Cycle   3  Pass 0  IDiag  1:
 E= -191.888356612039     Delta-E=        0.000009886179 Rises=F Damp=F
 DIIS: error= 7.69D-04 at cycle   3 NSaved=   3.
 NSaved= 3 IEnMin= 2 EnMin= -191.888366498218     IErMin= 2 ErrMin= 6.38D-04
 ErrMax= 7.69D-04  0.00D+00 EMaxC= 1.00D-01 BMatC= 5.63D-05 BMatP= 3.71D-05
 IDIUse=3 WtCom= 2.65D-01 WtEn= 7.35D-01
 Coeff-Com: -0.773D-01 0.585D+00 0.492D+00
 Coeff-En:   0.000D+00 0.569D+00 0.431D+00
 Coeff:     -0.205D-01 0.573D+00 0.447D+00
 Gap=     0.308 Goal=   None    Shift=    0.000
 RMSDP=7.85D-05 MaxDP=2.91D-03 DE= 9.89D-06 OVMax= 2.16D-03

 Cycle   4  Pass 0  IDiag  1:
 E= -191.888395443394     Delta-E=       -0.000038831355 Rises=F Damp=F
 DIIS: error= 3.18D-05 at cycle   4 NSaved=   4.
 NSaved= 4 IEnMin= 4 EnMin= -191.888395443394     IErMin= 4 ErrMin= 3.18D-05
 ErrMax= 3.18D-05  0.00D+00 EMaxC= 1.00D-01 BMatC= 1.10D-07 BMatP= 3.71D-05
 IDIUse=1 WtCom= 1.00D+00 WtEn= 0.00D+00
 Coeff-Com: -0.594D-02-0.511D-01-0.545D-02 0.106D+01
 Coeff:     -0.594D-02-0.511D-01-0.545D-02 0.106D+01
 Gap=     0.307 Goal=   None    Shift=    0.000
 RMSDP=9.75D-06 MaxDP=1.32D-04 DE=-3.88D-05 OVMax= 2.48D-04

 Initial convergence to 1.0D-05 achieved.  Increase integral accuracy.
 Cycle   5  Pass 1  IDiag  1:
 E= -191.888395303662     Delta-E=        0.000000139733 Rises=F Damp=F
 DIIS: error= 6.49D-06 at cycle   1 NSaved=   1.
 NSaved= 1 IEnMin= 1 EnMin= -191.888395303662     IErMin= 1 ErrMin= 6.49D-06
 ErrMax= 6.49D-06  0.00D+00 EMaxC= 1.00D-01 BMatC= 5.38D-09 BMatP= 5.38D-09
 IDIUse=1 WtCom= 1.00D+00 WtEn= 0.00D+00
 Coeff-Com:  0.100D+01
 Coeff:      0.100D+01
 Gap=     0.307 Goal=   None    Shift=    0.000
 RMSDP=9.75D-06 MaxDP=1.32D-04 DE= 1.40D-07 OVMax= 4.55D-05

 Cycle   6  Pass 1  IDiag  1:
 E= -191.888395307975     Delta-E=       -0.000000004313 Rises=F Damp=F
 DIIS: error= 4.79D-06 at cycle   2 NSaved=   2.
 NSaved= 2 IEnMin= 2 EnMin= -191.888395307975     IErMin= 2 ErrMin= 4.79D-06
 ErrMax= 4.79D-06  0.00D+00 EMaxC= 1.00D-01 BMatC= 3.33D-09 BMatP= 5.38D-09
 IDIUse=1 WtCom= 1.00D+00 WtEn= 0.00D+00
 Coeff-Com:  0.432D+00 0.568D+00
 Coeff:      0.432D+00 0.568D+00
 Gap=     0.307 Goal=   None    Shift=    0.000
 RMSDP=4.44D-07 MaxDP=6.55D-06 DE=-4.31D-09 OVMax= 1.86D-05

 Cycle   7  Pass 1  IDiag  1:
 E= -191.888395310782     Delta-E=       -0.000000002808 Rises=F Damp=F
 DIIS: error= 1.94D-06 at cycle   3 NSaved=   3.
 NSaved= 3 IEnMin= 3 EnMin= -191.888395310782     IErMin= 3 ErrMin= 1.94D-06
 ErrMax= 1.94D-06  0.00D+00 EMaxC= 1.00D-01 BMatC= 1.22D-10 BMatP= 3.33D-09
 IDIUse=1 WtCom= 1.00D+00 WtEn= 0.00D+00
 Coeff-Com:  0.464D-01 0.143D+00 0.811D+00
 Coeff:      0.464D-01 0.143D+00 0.811D+00
 Gap=     0.307 Goal=   None    Shift=    0.000
 RMSDP=2.29D-07 MaxDP=4.62D-06 DE=-2.81D-09 OVMax= 1.07D-05

 Cycle   8  Pass 1  IDiag  1:
 E= -191.888395310936     Delta-E=       -0.000000000153 Rises=F Damp=F
 DIIS: error= 6.05D-07 at cycle   4 NSaved=   4.
 NSaved= 4 IEnMin= 4 EnMin= -191.888395310936     IErMin= 4 ErrMin= 6.05D-07
 ErrMax= 6.05D-07  0.00D+00 EMaxC= 1.00D-01 BMatC= 5.23D-11 BMatP= 1.22D-10
 IDIUse=1 WtCom= 1.00D+00 WtEn= 0.00D+00
 Coeff-Com: -0.551D-01-0.416D-01 0.400D+00 0.696D+00
 Coeff:     -0.551D-01-0.416D-01 0.400D+00 0.696D+00
 Gap=     0.307 Goal=   None    Shift=    0.000
 RMSDP=1.43D-07 MaxDP=3.45D-06 DE=-1.53D-10 OVMax= 3.83D-06

 Cycle   9  Pass 1  IDiag  1:
 E= -191.888395310991     Delta-E=       -0.000000000055 Rises=F Damp=F
 DIIS: error= 2.56D-07 at cycle   5 NSaved=   5.
 NSaved= 5 IEnMin= 5 EnMin= -191.888395310991     IErMin= 5 ErrMin= 2.56D-07
 ErrMax= 2.56D-07  0.00D+00 EMaxC= 1.00D-01 BMatC= 2.43D-12 BMatP= 5.23D-11
 IDIUse=1 WtCom= 1.00D+00 WtEn= 0.00D+00
 Coeff-Com: -0.228D-01-0.296D-01 0.865D-01 0.251D+00 0.715D+00
 Coeff:     -0.228D-01-0.296D-01 0.865D-01 0.251D+00 0.715D+00
 Gap=     0.307 Goal=   None    Shift=    0.000
 RMSDP=2.70D-08 MaxDP=5.44D-07 DE=-5.47D-11 OVMax= 1.09D-06

 Cycle  10  Pass 1  IDiag  1:
 E= -191.888395310993     Delta-E=       -0.000000000003 Rises=F Damp=F
 DIIS: error= 1.02D-07 at cycle   6 NSaved=   6.
 NSaved= 6 IEnMin= 6 EnMin= -191.888395310993     IErMin= 6 ErrMin= 1.02D-07
 ErrMax= 1.02D-07  0.00D+00 EMaxC= 1.00D-01 BMatC= 9.61D-13 BMatP= 2.43D-12
 IDIUse=1 WtCom= 1.00D+00 WtEn= 0.00D+00
 Coeff-Com: -0.885D-02-0.154D-01 0.856D-02 0.678D-01 0.432D+00 0.516D+00
 Coeff:     -0.885D-02-0.154D-01 0.856D-02 0.678D-01 0.432D+00 0.516D+00
 Gap=     0.307 Goal=   None    Shift=    0.000
 RMSDP=1.36D-08 MaxDP=4.53D-07 DE=-2.73D-12 OVMax= 2.74D-07

 Cycle  11  Pass 1  IDiag  1:
 E= -191.888395310994     Delta-E=       -0.000000000001 Rises=F Damp=F
 DIIS: error= 2.18D-08 at cycle   7 NSaved=   7.
 NSaved= 7 IEnMin= 7 EnMin= -191.888395310994     IErMin= 7 ErrMin= 2.18D-08
 ErrMax= 2.18D-08  0.00D+00 EMaxC= 1.00D-01 BMatC= 4.56D-14 BMatP= 9.61D-13
 IDIUse=1 WtCom= 1.00D+00 WtEn= 0.00D+00
 Coeff-Com:  0.129D-02-0.505D-03-0.947D-02-0.249D-01 0.447D-01 0.158D+00
 Coeff-Com:  0.830D+00
 Coeff:      0.129D-02-0.505D-03-0.947D-02-0.249D-01 0.447D-01 0.158D+00
 Coeff:      0.830D+00
 Gap=     0.307 Goal=   None    Shift=    0.000
 RMSDP=5.28D-09 MaxDP=1.74D-07 DE=-6.82D-13 OVMax= 8.30D-08

 SCF Done:  E(RCAM-B3LYP) =  -191.888395311     A.U. after   11 cycles
            NFock= 11  Conv=0.53D-08     -V/T= 2.0039
 KE= 1.911365714231D+02 PE=-6.552717768603D+02 EE= 1.687408003117D+02
 Leave Link  502 at Fri Mar  1 15:31:31 2024, MaxMem= 14763950080 cpu:              23.2 elap:               0.8
 (Enter /apps/gaussian/g16-c01-avx2/g16/l701.exe)
 ... and contract with generalized density number  0.
 Compute integral first derivatives.
 Leave Link  701 at Fri Mar  1 15:31:31 2024, MaxMem= 14763950080 cpu:               3.0 elap:               0.1
 (Enter /apps/gaussian/g16-c01-avx2/g16/l702.exe)
 L702 exits ... SP integral derivatives will be done elsewhere.
 Leave Link  702 at Fri Mar  1 15:31:31 2024, MaxMem= 14763950080 cpu:               0.3 elap:               0.0
 (Enter /apps/gaussian/g16-c01-avx2/g16/l703.exe)
 Integral derivatives from FoFJK, PRISM(SPDF).
 Compute integral first derivatives, UseDBF=F ICtDFT=           0.
 Calling FoFJK, ICntrl=      2127 FMM=F ISym2X=1 I1Cent= 0 IOpClX= 0 NMat=1 NMatS=1 NMatT=0.
 FoFJK:  IHMeth= 1 ICntrl=    2127 DoSepK=T KAlg= 0 I1Cent=           0 FoldK=F
 IRaf=         1 NMat=       1 IRICut=       1 DoRegI=T DoRafI=F ISym2E= 1 IDoP0=0 IntGTp=1.
 FoFCou: FMM=F IPFlag=           0 FMFlag=      100000 FMFlg1=         800
         NFxFlg=           0 DoJE=F BraDBF=F KetDBF=F FulRan=T
         wScrn=  0.000000 ICntrl=      2527 IOpCl=  0 I1Cent=           0 NGrid=           0
         NMat0=    1 NMatS0=      1 NMatT0=    0 NMatD0=    1 NMtDS0=    0 NMtDT0=    0
 Petite list used in FoFCou.
 Leave Link  703 at Fri Mar  1 15:31:31 2024, MaxMem= 14763950080 cpu:              11.8 elap:               0.4
 (Enter /apps/gaussian/g16-c01-avx2/g16/l716.exe)
 Dipole        = 1.02762054D+00 8.41510070D-01 2.20973897D-17
 ***** Axes restored to original set *****
 -------------------------------------------------------------------
 Center     Atomic                   Forces (Hartrees/Bohr)
 Number     Number              X              Y              Z
 -------------------------------------------------------------------
      1        8          -0.000297058    0.000600950    0.000020986
      2        6           0.001518001   -0.000518249   -0.000018098
      3        1          -0.001364871   -0.000766108   -0.000026753
      4        6          -0.001363989    0.000695235    0.000024278
      5        1           0.000057162    0.000354735    0.000012388
      6        6           0.002234644    0.000097040    0.000003389
      7        1          -0.000450702    0.000015736    0.000000550
      8        1          -0.000333187   -0.000479340   -0.000016739
 -------------------------------------------------------------------
 Cartesian Forces:  Max     0.002234644 RMS     0.000749854
 Leave Link  716 at Fri Mar  1 15:31:31 2024, MaxMem= 14763950080 cpu:               0.3 elap:               0.0
 (Enter /apps/gaussian/g16-c01-avx2/g16/l103.exe)

 GradGradGradGradGradGradGradGradGradGradGradGradGradGradGradGradGradGrad
 Berny optimization.
 Using GEDIIS/GDIIS optimizer.
 FormGI is forming the generalized inverse of G from B-inverse, IUseBI=4.
 Internal  Forces:  Max     0.001450519 RMS     0.000573103
 Search for a local minimum.
 Step number   3 out of a maximum of   34
 All quantities printed in internal units (Hartrees-Bohrs-Radians)
 RMS Force = .57310D-03 SwitMx=.10000D-02 MixMth= 2
 Mixed Optimization -- En-DIIS/RFO-DIIS
 Update second derivatives using D2CorX and points    1    2    3
 DE= -3.75D-04 DEPred=-3.69D-04 R= 1.02D+00
 TightC=F SS=  1.41D+00  RLast= 5.81D-02 DXNew= 8.4853D-01 1.7415D-01
[...]
     ==================================================

 Energy of the 0-0 transition:  25160.1510 cm^(-1)

 NOTE: The energy (transition energy) refers to the relative energy,
       with respect to the 0-0 transition energy
       The intensity is the line intensity.
       DipStr is the dipole strength.

 Energy =  -7301.4577 cm^-1: |0> -> |14^4>
   -> Intensity = 0.5048E-02 (DipStr = 0.3245E-04)

 Energy =  -5476.0933 cm^-1: |0> -> |14^3>
   -> Intensity = 0.1806E-01 (DipStr = 0.7858E-04)

 Energy =  -4836.4215 cm^-1: |0> -> |14^2;9^1>
   -> Intensity = 0.8602E-02 (DipStr = 0.3293E-04)

 Energy =  -4232.3527 cm^-1: |0> -> |14^2;3^1>
   -> Intensity = 0.1294E-01 (DipStr = 0.4406E-04)

 Energy =  -3978.3778 cm^-1: |0> -> |14^2;2^1>
   -> Intensity = 0.7515E-02 (DipStr = 0.2438E-04)

 Energy =  -3650.7289 cm^-1: |0> -> |14^2>
   -> Intensity = 0.5375E-01 (DipStr = 0.1641E-03)

 Energy =  -3592.6809 cm^-1: |0> -> |14^1;9^1;3^1>
   -> Intensity = 0.9563E-02 (DipStr = 0.2887E-04)

 Energy =  -3011.0571 cm^-1: |0> -> |14^1;9^1>
   -> Intensity = 0.2299E-01 (DipStr = 0.6240E-04)

 Energy =  -2406.9883 cm^-1: |0> -> |14^1;3^1>
   -> Intensity = 0.3087E-01 (DipStr = 0.7525E-04)

 Energy =  -2153.0133 cm^-1: |0> -> |14^1;2^1>
   -> Intensity = 0.1529E-01 (DipStr = 0.3564E-04)

 Energy =  -1825.3644 cm^-1: |0> -> |14^1>
   -> Intensity = 0.1232     (DipStr = 0.2716E-03)

 Energy =  -1767.3165 cm^-1: |0> -> |9^1;3^1>
   -> Intensity = 0.1660E-01 (DipStr = 0.3623E-04)

 Energy =  -1185.6926 cm^-1: |0> -> |9^1>
   -> Intensity = 0.3966E-01 (DipStr = 0.7845E-04)

 Energy =   -933.5285 cm^-1: |0> -> |5^1>
   -> Intensity = 0.1316E-01 (DipStr = 0.2495E-04)

 Energy =   -581.6238 cm^-1: |0> -> |3^1>
   -> Intensity = 0.4664E-01 (DipStr = 0.8356E-04)

 Energy =   -327.6489 cm^-1: |0> -> |2^1>
   -> Intensity = 0.1855E-01 (DipStr = 0.3187E-04)

 Energy =      0.0000 cm^-1: |0> -> |0>
   -> Intensity = 0.1778     (DipStr = 0.2898E-03)

     ==================================================
                       Final Spectrum
     ==================================================

 Band broadening simulated by mean of Gaussian functions with
 Half-Widths at Half-Maximum of  500.00 cm^(-1)
 
 Legend:
 -------
 1st col.: Energy (in cm^-1)
 2nd col.: Intensity at T=0K
 Intensity: Emitted intensity (in microJ.mol^-1)
 -----------------------------
    17160.1510    0.770907D-02
    17180.1510    0.789657D-02
    17200.1510    0.808871D-02
    17220.1510    0.828524D-02
    17240.1510    0.848596D-02
    17260.1510    0.869054D-02
    17280.1510    0.889868D-02
    17300.1510    0.910994D-02
    17320.1510    0.932397D-02
    17340.1510    0.954036D-02
    17360.1510    0.975958D-02
    17380.1510    0.997962D-02
    17400.1510    0.102005D-01
    17420.1510    0.104221D-01
    17440.1510    0.106435D-01
    17460.1510    0.108643D-01
    17480.1510    0.110840D-01
    17500.1510    0.113020D-01
    17520.1510    0.115178D-01
    17540.1510    0.117308D-01
    17560.1510    0.119406D-01
    17580.1510    0.121465D-01
    17600.1510    0.123487D-01
    17620.1510    0.125456D-01
    17640.1510    0.127373D-01
    17660.1510    0.129235D-01
    17680.1510    0.131036D-01
    17700.1510    0.132774D-01
    17720.1510    0.134445D-01
    17740.1510    0.136047D-01
    17760.1510    0.137578D-01
    17780.1510    0.139037D-01
    17800.1510    0.140420D-01
    17820.1510    0.141732D-01
    17840.1510    0.142971D-01
    17860.1510    0.144137D-01
    17880.1510    0.145233D-01
    17900.1510    0.146259D-01
    17920.1510    0.147220D-01
    17940.1510    0.148156D-01
    17960.1510    0.149002D-01
    17980.1510    0.149793D-01
    18000.1510    0.150543D-01
    18020.1510    0.151244D-01
    18040.1510    0.151906D-01
    18060.1510    0.152537D-01
    18080.1510    0.153140D-01
    18100.1510    0.153726D-01
    18120.1510    0.154298D-01
    18140.1510    0.154864D-01
    18160.1510    0.155432D-01
    18180.1510    0.156010D-01
    18200.1510    0.156603D-01
    18220.1510    0.157220D-01
    18240.1510    0.157871D-01
    18260.1510    0.158558D-01
    18280.1510    0.159293D-01
    18300.1510    0.160080D-01
    18320.1510    0.160927D-01
    18340.1510    0.161843D-01
    18360.1510    0.162835D-01
    18380.1510    0.163906D-01
    18400.1510    0.165066D-01
    18420.1510    0.166321D-01
    18440.1510    0.167676D-01
    18460.1510    0.169140D-01
    18480.1510    0.170718D-01
    18500.1510    0.172416D-01
    18520.1510    0.174240D-01
    18540.1510    0.176196D-01
    18560.1510    0.178290D-01
    18580.1510    0.180544D-01
    18600.1510    0.182936D-01
    18620.1510    0.185478D-01
    18640.1510    0.188181D-01
    18660.1510    0.191047D-01
    18680.1510    0.194080D-01
    18700.1510    0.197284D-01
    18720.1510    0.200663D-01
    18740.1510    0.204221D-01
    18760.1510    0.207962D-01
    18780.1510    0.211886D-01
    18800.1510    0.215997D-01
    18820.1510    0.220299D-01
    18840.1510    0.224788D-01
    18860.1510    0.229464D-01
    18880.1510    0.234330D-01
    18900.1510    0.239382D-01
    18920.1510    0.244621D-01
    18940.1510    0.250040D-01
    18960.1510    0.255637D-01
    18980.1510    0.261406D-01
    19000.1510    0.267343D-01
    19020.1510    0.273437D-01
    19040.1510    0.279684D-01
    19060.1510    0.286073D-01
    19080.1510    0.292594D-01
    19100.1510    0.299238D-01
    19120.1510    0.305987D-01
    19140.1510    0.312831D-01
    19160.1510    0.319754D-01
    19180.1510    0.326769D-01
    19200.1510    0.333808D-01
    19220.1510    0.340884D-01
    19240.1510    0.347973D-01
    19260.1510    0.355053D-01
    19280.1510    0.362106D-01
    19300.1510    0.369116D-01
    19320.1510    0.376061D-01
    19340.1510    0.382922D-01
    19360.1510    0.389677D-01
    19380.1510    0.396308D-01
    19400.1510    0.402796D-01
    19420.1510    0.409122D-01
    19440.1510    0.415283D-01
    19460.1510    0.421235D-01
    19480.1510    0.426973D-01
    19500.1510    0.432486D-01
    19520.1510    0.437754D-01
    19540.1510    0.442772D-01
    19560.1510    0.447523D-01
    19580.1510    0.452001D-01
    19600.1510    0.456191D-01
    19620.1510    0.460108D-01
    19640.1510    0.463738D-01
    19660.1510    0.467078D-01
    19680.1510    0.470134D-01
    19700.1510    0.472906D-01
    19720.1510    0.475400D-01
    19740.1510    0.477625D-01
    19760.1510    0.479698D-01
    19780.1510    0.481434D-01
    19800.1510    0.482937D-01
    19820.1510    0.484241D-01
    19840.1510    0.485330D-01
    19860.1510    0.486239D-01
    19880.1510    0.486983D-01
    19900.1510    0.487583D-01
    19920.1510    0.488062D-01
    19940.1510    0.488442D-01
    19960.1510    0.488746D-01
    19980.1510    0.488998D-01
    20000.1510    0.489222D-01
    20020.1510    0.489441D-01
    20040.1510    0.489681D-01
    20060.1510    0.489971D-01
    20080.1510    0.490328D-01
    20100.1510    0.490776D-01
    20120.1510    0.491345D-01
    20140.1510    0.492050D-01
    20160.1510    0.492917D-01
    20180.1510    0.493973D-01
    20200.1510    0.495231D-01
    20220.1510    0.496717D-01
    20240.1510    0.498448D-01
    20260.1510    0.500452D-01
    20280.1510    0.502744D-01
    20300.1510    0.505342D-01
    20320.1510    0.508267D-01
    20340.1510    0.511534D-01
    20360.1510    0.515161D-01
    20380.1510    0.519167D-01
    20400.1510    0.523611D-01
    20420.1510    0.528438D-01
    20440.1510    0.533679D-01
    20460.1510    0.539365D-01
    20480.1510    0.545502D-01
    20500.1510    0.552102D-01
    20520.1510    0.559178D-01
    20540.1510    0.566745D-01
    20560.1510    0.574808D-01
    20580.1510    0.583378D-01
    20600.1510    0.592464D-01
    20620.1510    0.602069D-01
    20640.1510    0.612200D-01
    20660.1510    0.622872D-01
    20680.1510    0.634067D-01
    20700.1510    0.645789D-01
    20720.1510    0.658033D-01
    20740.1510    0.670799D-01
    20760.1510    0.684077D-01
    20780.1510    0.697853D-01
    20800.1510    0.712116D-01
    20820.1510    0.726851D-01
    20840.1510    0.742034D-01
    20860.1510    0.757636D-01
    20880.1510    0.773646D-01
    20900.1510    0.790030D-01
    20920.1510    0.806753D-01
    20940.1510    0.823777D-01
    20960.1510    0.841064D-01
    20980.1510    0.858571D-01
    21000.1510    0.876315D-01
    21020.1510    0.894134D-01
    21040.1510    0.912040D-01
    21060.1510    0.929969D-01
    21080.1510    0.947859D-01
    21100.1510    0.965653D-01
    21120.1510    0.983305D-01
    21140.1510    0.100075D+00
    21160.1510    0.101792D+00
    21180.1510    0.103476D+00
    21200.1510    0.105121D+00
    21220.1510    0.106721D+00
    21240.1510    0.108270D+00
    21260.1510    0.109766D+00
    21280.1510    0.111197D+00
    21300.1510    0.112562D+00
    21320.1510    0.113856D+00
    21340.1510    0.115073D+00
    21360.1510    0.116210D+00
    21380.1510    0.117263D+00
    21400.1510    0.118229D+00
    21420.1510    0.119107D+00
    21440.1510    0.119890D+00
    21460.1510    0.120585D+00
    21480.1510    0.121186D+00
    21500.1510    0.121694D+00
    21520.1510    0.122111D+00
    21540.1510    0.122435D+00
    21560.1510    0.122670D+00
    21580.1510    0.122842D+00
    21600.1510    0.122910D+00
    21620.1510    0.122897D+00
    21640.1510    0.122812D+00
    21660.1510    0.122653D+00
    21680.1510    0.122426D+00
    21700.1510    0.122139D+00
    21720.1510    0.121795D+00
    21740.1510    0.121402D+00
    21760.1510    0.120965D+00
    21780.1510    0.120491D+00
    21800.1510    0.119986D+00
    21820.1510    0.119457D+00
    21840.1510    0.118911D+00
    21860.1510    0.118354D+00
    21880.1510    0.117794D+00
    21900.1510    0.117238D+00
    21920.1510    0.116690D+00
    21940.1510    0.116158D+00
    21960.1510    0.115648D+00
    21980.1510    0.115166D+00
    22000.1510    0.114719D+00
    22020.1510    0.114311D+00
    22040.1510    0.113948D+00
    22060.1510    0.113636D+00
    22080.1510    0.113379D+00
    22100.1510    0.113183D+00
    22120.1510    0.113053D+00
    22140.1510    0.112993D+00
    22160.1510    0.113007D+00
    22180.1510    0.113099D+00
    22200.1510    0.113274D+00
    22220.1510    0.113541D+00
    22240.1510    0.113894D+00
    22260.1510    0.114337D+00
    22280.1510    0.114877D+00
    22300.1510    0.115516D+00
    22320.1510    0.116256D+00
    22340.1510    0.117100D+00
    22360.1510    0.118052D+00
    22380.1510    0.119112D+00
    22400.1510    0.120283D+00
    22420.1510    0.121566D+00
    22440.1510    0.122963D+00
    22460.1510    0.124475D+00
    22480.1510    0.126104D+00
    22500.1510    0.127847D+00
    22520.1510    0.129705D+00
    22540.1510    0.131678D+00
    22560.1510    0.133764D+00
    22580.1510    0.135961D+00
    22600.1510    0.138267D+00
    22620.1510    0.140680D+00
    22640.1510    0.143196D+00
    22660.1510    0.145810D+00
    22680.1510    0.148514D+00
    22700.1510    0.151309D+00
    22720.1510    0.154185D+00
    22740.1510    0.157135D+00
    22760.1510    0.160150D+00
    22780.1510    0.163223D+00
    22800.1510    0.166342D+00
    22820.1510    0.169508D+00
    22840.1510    0.172692D+00
    22860.1510    0.175891D+00
    22880.1510    0.179093D+00
    22900.1510    0.182284D+00
    22920.1510    0.185451D+00
    22940.1510    0.188580D+00
    22960.1510    0.191660D+00
    22980.1510    0.194674D+00
    23000.1510    0.197608D+00
    23020.1510    0.200449D+00
    23040.1510    0.203182D+00
    23060.1510    0.205793D+00
    23080.1510    0.208273D+00
    23100.1510    0.210602D+00
    23120.1510    0.212770D+00
    23140.1510    0.214765D+00
    23160.1510    0.216578D+00
    23180.1510    0.218197D+00
    23200.1510    0.219614D+00
    23220.1510    0.220822D+00
    23240.1510    0.221813D+00
    23260.1510    0.222572D+00
    23280.1510    0.223119D+00
    23300.1510    0.223437D+00
    23320.1510    0.223524D+00
    23340.1510    0.223385D+00
    23360.1510    0.223018D+00
    23380.1510    0.222428D+00
    23400.1510    0.221619D+00
    23420.1510    0.220637D+00
    23440.1510    0.219417D+00
    23460.1510    0.218002D+00
    23480.1510    0.216400D+00
    23500.1510    0.214623D+00
    23520.1510    0.212682D+00
    23540.1510    0.210590D+00
    23560.1510    0.208360D+00
    23580.1510    0.206006D+00
    23600.1510    0.203543D+00
    23620.1510    0.200984D+00
    23640.1510    0.198346D+00
    23660.1510    0.195643D+00
    23680.1510    0.192890D+00
    23700.1510    0.190102D+00
    23720.1510    0.187293D+00
    23740.1510    0.184479D+00
    23760.1510    0.181673D+00
    23780.1510    0.178888D+00
    23800.1510    0.176138D+00
    23820.1510    0.173435D+00
    23840.1510    0.170791D+00
    23860.1510    0.168218D+00
    23880.1510    0.165725D+00
    23900.1510    0.163319D+00
    23920.1510    0.161018D+00
    23940.1510    0.158827D+00
    23960.1510    0.156752D+00
    23980.1510    0.154802D+00
    24000.1510    0.152984D+00
    24020.1510    0.151303D+00
    24040.1510    0.149766D+00
    24060.1510    0.148378D+00
    24080.1510    0.147142D+00
    24100.1510    0.146065D+00
    24120.1510    0.145149D+00
    24140.1510    0.144397D+00
    24160.1510    0.143813D+00
    24180.1510    0.143400D+00
    24200.1510    0.143160D+00
    24220.1510    0.143094D+00
    24240.1510    0.143204D+00
    24260.1510    0.143491D+00
    24280.1510    0.143955D+00
    24300.1510    0.144596D+00
    24320.1510    0.145413D+00
    24340.1510    0.146406D+00
    24360.1510    0.147572D+00
    24380.1510    0.148910D+00
    24400.1510    0.150415D+00
    24420.1510    0.152084D+00
    24440.1510    0.153913D+00
    24460.1510    0.155895D+00
    24480.1510    0.158025D+00
    24500.1510    0.160287D+00
    24520.1510    0.162688D+00
    24540.1510    0.165210D+00
    24560.1510    0.167842D+00
    24580.1510    0.170575D+00
    24600.1510    0.173393D+00
    24620.1510    0.176284D+00
    24640.1510    0.179233D+00
    24660.1510    0.182223D+00
    24680.1510    0.185238D+00
    24700.1510    0.188259D+00
    24720.1510    0.191269D+00
    24740.1510    0.194247D+00
    24760.1510    0.197170D+00
    24780.1510    0.200026D+00
    24800.1510    0.202788D+00
    24820.1510    0.205435D+00
    24840.1510    0.207948D+00
    24860.1510    0.210305D+00
    24880.1510    0.212484D+00
    24900.1510    0.214465D+00
    24920.1510    0.216229D+00
    24940.1510    0.217756D+00
    24960.1510    0.219029D+00
    24980.1510    0.220031D+00
    25000.1510    0.220745D+00
    25020.1510    0.221160D+00
    25040.1510    0.221261D+00
    25060.1510    0.221040D+00
    25080.1510    0.220461D+00
    25100.1510    0.219576D+00
    25120.1510    0.218347D+00
    25140.1510    0.216771D+00
    25160.1510    0.214855D+00
    25180.1510    0.212598D+00
    25200.1510    0.210003D+00
    25220.1510    0.207080D+00
    25240.1510    0.203836D+00
    25260.1510    0.200284D+00
    25280.1510    0.196436D+00
    25300.1510    0.192308D+00
    25320.1510    0.187917D+00
    25340.1510    0.183282D+00
    25360.1510    0.178421D+00
    25380.1510    0.173357D+00
    25400.1510    0.168110D+00
    25420.1510    0.162705D+00
    25440.1510    0.157165D+00
    25460.1510    0.151515D+00
    25480.1510    0.145777D+00
    25500.1510    0.139975D+00
    25520.1510    0.134134D+00
    25540.1510    0.128277D+00
    25560.1510    0.122426D+00
    25580.1510    0.116603D+00
    25600.1510    0.110829D+00
    25620.1510    0.105123D+00
    25640.1510    0.995051D-01
    25660.1510    0.939917D-01
    25680.1510    0.885986D-01
    25700.1510    0.833401D-01
    25720.1510    0.782208D-01
    25740.1510    0.732685D-01
    25760.1510    0.684869D-01
    25780.1510    0.638817D-01
    25800.1510    0.594597D-01
    25820.1510    0.552261D-01
    25840.1510    0.511845D-01
    25860.1510    0.473374D-01
    25880.1510    0.436858D-01
    25900.1510    0.402294D-01
    25920.1510    0.369669D-01
    25940.1510    0.338960D-01
    25960.1510    0.310132D-01
    25980.1510    0.283118D-01
    26000.1510    0.257918D-01
    26020.1510    0.234459D-01
    26040.1510    0.212672D-01
    26060.1510    0.192492D-01
    26080.1510    0.173848D-01
    26100.1510    0.156668D-01
    26120.1510    0.140879D-01
    26140.1510    0.126406D-01
    26160.1510    0.113172D-01
 -----------------------------

 Leave Link  718 at Fri Mar  1 15:33:25 2024, MaxMem= 14763950080 cpu:             252.5 elap:               8.0
 (Enter /apps/gaussian/g16-c01-avx2/g16/l9999.exe)

 ----------------------------------------------------------------------

 Electric dipole moment (input orientation):
 (Debye = 10**-18 statcoulomb cm , SI units = C m)
                  (au)            (Debye)         (10**-30 SI)
   Tot        0.132588D+01      0.337005D+01      0.112413D+02
   x         -0.128802D+01     -0.327381D+01     -0.109203D+02
   y          0.314405D+00      0.799137D+00      0.266563D+01
   z          0.109792D-01      0.279065D-01      0.930859D-01

 Dipole polarizability, Alpha (input orientation).
 (esu units = cm**3 , SI units = C**2 m**2 J**-1)
 Alpha(0;0):
               (au)            (10**-24 esu)      (10**-40 SI)
   iso        0.383344D+02      0.568057D+01      0.632049D+01
   aniso      0.330073D+02      0.489118D+01      0.544217D+01
   xx         0.579045D+02      0.858056D+01      0.954716D+01
   yx        -0.555547D+01     -0.823235D+00     -0.915973D+00
   yy         0.352426D+02      0.522242D+01      0.581073D+01
   zx        -0.194001D+00     -0.287480D-01     -0.319865D-01
   zy         0.468039D+00      0.693562D-01      0.771692D-01
   zz         0.218561D+02      0.323874D+01      0.360359D+01

 ----------------------------------------------------------------------

 Dipole orientation:
     8         -0.65723277         -0.29508479          7.37678317
     6         -0.77187778         -0.70402769          9.61122348
     1         -1.30324842         -2.59944605         10.32951149
     6         -0.24051507          1.19136237         11.57486616
     1          0.28330789          3.05985789         10.92012221
     6         -0.40325166          0.61087506         14.00549094
     1         -0.93214042         -1.27569033         14.60798666
     1         -0.02046627          1.97628442         15.47788365

 Electric dipole moment (dipole orientation):
 (Debye = 10**-18 statcoulomb cm , SI units = C m)
                  (au)            (Debye)         (10**-30 SI)
   Tot        0.132588D+01      0.337005D+01      0.112413D+02
   x          0.000000D+00      0.000000D+00      0.000000D+00
   y          0.000000D+00      0.000000D+00      0.000000D+00
   z          0.132588D+01      0.337005D+01      0.112413D+02

 Dipole polarizability, Alpha (dipole orientation).
 (esu units = cm**3 , SI units = C**2 m**2 J**-1)
 Alpha(0;0):
               (au)            (10**-24 esu)      (10**-40 SI)
   iso        0.383344D+02      0.568057D+01      0.632049D+01
   aniso      0.330073D+02      0.489118D+01      0.544217D+01
   xx         0.227237D+02      0.336731D+01      0.374664D+01
   yx         0.315319D+01      0.467255D+00      0.519891D+00
   yy         0.330873D+02      0.490303D+01      0.545536D+01
   zx        -0.774156D-01     -0.114718D-01     -0.127641D-01
   zy        -0.276144D+00     -0.409203D-01     -0.455300D-01
   zz         0.591922D+02      0.877137D+01      0.975947D+01

 ----------------------------------------------------------------------

 This type of calculation cannot be archived.


 IN NATURE THERE ARE NEITHER REWARDS OR
 PUNISHMENTS -- THERE ARE CONSEQUENCES.

                            -- ROBERT GREEN INGERSOLL
 Job cpu time:       0 days  0 hours  4 minutes 21.1 seconds.
 Elapsed time:       0 days  0 hours  0 minutes  8.3 seconds.
 File lengths (MBytes):  RWF=      6 Int=      0 D2E=      0 Chk=      2 Scr=      1
 Normal termination of Gaussian 16 at Fri Mar  1 15:33:26 2024.
