 Entering Gaussian System, Link 0=g16
 Input=DPB_linked.gjf
 Output=DPB_linked.log
 Initial command:
 /apps/gaussian/g16-c01-avx2/g16/l1.exe "/var/tmp/pbs.9033542.pbs/Gau-1167763.inp" -scrdir="/var/tmp/pbs.9033542.pbs/"
 Entering Link 1 = /apps/gaussian/g16-c01-avx2/g16/l1.exe PID=   1167764.
  
 Copyright (c) 1988-2019, Gaussian, Inc.  All Rights Reserved.
  
 This is part of the Gaussian(R) 16 program.  It is based on
 the Gaussian(R) 09 system (copyright 2009, Gaussian, Inc.),
 the Gaussian(R) 03 system (copyright 2003, Gaussian, Inc.),
 the Gaussian(R) 98 system (copyright 1998, Gaussian, Inc.),
 the Gaussian(R) 94 system (copyright 1995, Gaussian, Inc.),
 the Gaussian 92(TM) system (copyright 1992, Gaussian, Inc.),
 the Gaussian 90(TM) system (copyright 1990, Gaussian, Inc.),
 the Gaussian 88(TM) system (copyright 1988, Gaussian, Inc.),
 the Gaussian 86(TM) system (copyright 1986, Carnegie Mellon
 University), and the Gaussian 82(TM) system (copyright 1983,
 Carnegie Mellon University). Gaussian is a federally registered
 trademark of Gaussian, Inc.
  
 This software contains proprietary and confidential information,
 including trade secrets, belonging to Gaussian, Inc.
  
 This software is provided under written license and may be
 used, copied, transmitted, or stored only in accord with that
 written license.
  
 The following legend is applicable only to US Government
 contracts under FAR:
  
                    RESTRICTED RIGHTS LEGEND
  
 Use, reproduction and disclosure by the US Government is
 subject to restrictions as set forth in subparagraphs (a)
 and (c) of the Commercial Computer Software - Restricted
 Rights clause in FAR 52.227-19.
  
 Gaussian, Inc.
 340 Quinnipiac St., Bldg. 40, Wallingford CT 06492
  
  
 ---------------------------------------------------------------
 Warning -- This program may not be used in any manner that
 competes with the business of Gaussian, Inc. or will provide
 assistance to any competitor of Gaussian, Inc.  The licensee
 of this program is prohibited from giving any competitor of
 Gaussian, Inc. access to this program.  By using this program,
 the user acknowledges that Gaussian, Inc. is engaged in the
 business of creating and licensing software in the field of
 computational chemistry and represents and warrants to the
 licensee that it is not a competitor of Gaussian, Inc. and that
 it will not use this program in any manner prohibited above.
 ---------------------------------------------------------------
  

 Cite this work as:
 Gaussian 16, Revision C.01,
 M. J. Frisch, G. W. Trucks, H. B. Schlegel, G. E. Scuseria, 
 M. A. Robb, J. R. Cheeseman, G. Scalmani, V. Barone, 
 G. A. Petersson, H. Nakatsuji, X. Li, M. Caricato, A. V. Marenich, 
 J. Bloino, B. G. Janesko, R. Gomperts, B. Mennucci, H. P. Hratchian, 
 J. V. Ortiz, A. F. Izmaylov, J. L. Sonnenberg, D. Williams-Young, 
 F. Ding, F. Lipparini, F. Egidi, J. Goings, B. Peng, A. Petrone, 
 T. Henderson, D. Ranasinghe, V. G. Zakrzewski, J. Gao, N. Rega, 
 G. Zheng, W. Liang, M. Hada, M. Ehara, K. Toyota, R. Fukuda, 
 J. Hasegawa, M. Ishida, T. Nakajima, Y. Honda, O. Kitao, H. Nakai, 
 T. Vreven, K. Throssell, J. A. Montgomery, Jr., J. E. Peralta, 
 F. Ogliaro, M. J. Bearpark, J. J. Heyd, E. N. Brothers, K. N. Kudin, 
 V. N. Staroverov, T. A. Keith, R. Kobayashi, J. Normand, 
 K. Raghavachari, A. P. Rendell, J. C. Burant, S. S. Iyengar, 
 J. Tomasi, M. Cossi, J. M. Millam, M. Klene, C. Adamo, R. Cammi, 
 J. W. Ochterski, R. L. Martin, K. Morokuma, O. Farkas, 
 J. B. Foresman, and D. J. Fox, Gaussian, Inc., Wallingford CT, 2019.
 
 ******************************************
 Gaussian 16:  ES64L-G16RevC.01  3-Jul-2019
                 4-Mar-2024 
 ******************************************
 %chk=DPB1.chk
 %NProcShared=32
 Will use up to   32 processors via shared memory.
 %Mem=110GB
 ----------------------------------------------------------------------
 #p CAM-B3LYP/TZVP SCRF(solvent=cyclohexane) geom=connectivity Opt Freq
 ----------------------------------------------------------------------
 1/18=20,19=15,26=3,38=1,57=2/1,3;
 2/9=110,12=2,17=6,18=5,40=1/2;
 3/5=19,7=101,11=2,25=1,30=1,70=2201,71=1,72=17,74=-40/1,2,3;
 4//1;
 5/5=2,38=5,53=17/2;
 6/7=2,8=2,9=2,10=2,28=1/1;
 7//1,2,3,16;
 1/18=20,19=15,26=3/3(2);
 2/9=110/2;
 99//99;
 2/9=110/2;
 3/5=19,7=101,11=2,25=1,30=1,70=2205,71=1,72=17,74=-40/1,2,3;
 4/5=5,16=3,69=1/1;
 5/5=2,38=5,53=17/2;
 7//1,2,3,16;
 1/18=20,19=15,26=3/3(-5);
 2/9=110/2;
 6/7=2,8=2,9=2,10=2,19=2,28=1/1;
 99/9=1/99;
 Leave Link    1 at Mon Mar  4 13:43:52 2024, MaxMem= 14763950080 cpu:               0.6 elap:               0.0
 (Enter /apps/gaussian/g16-c01-avx2/g16/l101.exe)
 ----------------------------------------------------------------------
 Ground state calculation for DPB molecule, later to be used for excite
 d state and FC-HT analysis.
 ----------------------------------------------------------------------
 Symbolic Z-matrix:
 Charge =  0 Multiplicity = 1
 C                    -1.86233   1.27553  -0.93454 
 C                    -0.90555   1.67825   0.0069 
 C                    -0.94967   2.9732    0.54084 
 C                    -1.95058   3.86542   0.13333 
 C                    -2.90735   3.4627   -0.80811 
 C                    -2.86323   2.16775  -1.34205 
 H                    -1.82864   0.28681  -1.34222 
 H                    -0.14134   0.99702   0.31803 
 H                    -0.21915   3.28069   1.25965 
 H                    -3.67156   4.14393  -1.11925 
 H                    -3.59375   1.86026  -2.06086 
 C                    -1.99906   5.28844   0.72008 
 H                    -2.93287   5.43598   1.2212 
 H                    -1.19666   5.41457   1.4166 
 C                    -1.87107   6.22495  -0.31457 
 H                    -2.73973   6.84918  -0.34009 
 H                    -1.77223   5.71292  -1.24889 
 C                    -0.62245   7.09257  -0.07008 
 H                    -0.14181   6.77941   0.83315 
 H                     0.05475   6.98243  -0.89115 
 C                    -1.00266   8.4365    0.04482 
 H                    -0.71555   8.80743   1.00652 
 H                    -2.06374   8.51776  -0.06657 
 C                    -0.30653   9.26256  -1.05275 
 C                     0.54958   10.31482  -0.70096 
 C                    -0.52917   8.96201  -2.40331 
 C                     1.18305   11.06652  -1.69975 
 H                     0.71956   10.54429   0.33022 
 C                     0.10431   9.71371  -3.40209 
 H                    -1.18282   8.15858  -2.6719 
 C                     0.96042   10.76597  -3.05031 
 H                     1.83671   11.86995  -1.43115 
 H                    -0.06568   9.48424  -4.43328 
 H                     1.44409   11.33992  -3.8129 
 
 ITRead=  0  0  0  0  0  0  0  0  0  0  0  0  0  0  0  0  0  0  0  0
 ITRead=  0  0  0  0  0  0  0  0  0  0  0  0  0  0
 MicOpt= -1 -1 -1 -1 -1 -1 -1 -1 -1 -1 -1 -1 -1 -1 -1 -1 -1 -1 -1 -1
 MicOpt= -1 -1 -1 -1 -1 -1 -1 -1 -1 -1 -1 -1 -1 -1
 NAtoms=     34 NQM=       34 NQMF=       0 NMMI=      0 NMMIF=      0
                NMic=       0 NMicF=      0.
                    Isotopes and Nuclear Properties:
 (Nuclear quadrupole moments (NQMom) in fm**2, nuclear magnetic moments (NMagM)
  in nuclear magnetons)

  Atom         1           2           3           4           5           6           7           8           9          10
 IAtWgt=          12          12          12          12          12          12           1           1           1           1
 AtmWgt=  12.0000000  12.0000000  12.0000000  12.0000000  12.0000000  12.0000000   1.0078250   1.0078250   1.0078250   1.0078250
 NucSpn=           0           0           0           0           0           0           1           1           1           1
 AtZEff=  -0.0000000  -0.0000000  -0.0000000  -0.0000000  -0.0000000  -0.0000000  -0.0000000  -0.0000000  -0.0000000  -0.0000000
 NQMom=    0.0000000   0.0000000   0.0000000   0.0000000   0.0000000   0.0000000   0.0000000   0.0000000   0.0000000   0.0000000
 NMagM=    0.0000000   0.0000000   0.0000000   0.0000000   0.0000000   0.0000000   2.7928460   2.7928460   2.7928460   2.7928460
 AtZNuc=   6.0000000   6.0000000   6.0000000   6.0000000   6.0000000   6.0000000   1.0000000   1.0000000   1.0000000   1.0000000

  Atom        11          12          13          14          15          16          17          18          19          20
 IAtWgt=           1          12           1           1          12           1           1          12           1           1
 AtmWgt=   1.0078250  12.0000000   1.0078250   1.0078250  12.0000000   1.0078250   1.0078250  12.0000000   1.0078250   1.0078250
 NucSpn=           1           0           1           1           0           1           1           0           1           1
 AtZEff=  -0.0000000  -0.0000000  -0.0000000  -0.0000000  -0.0000000  -0.0000000  -0.0000000  -0.0000000  -0.0000000  -0.0000000
 NQMom=    0.0000000   0.0000000   0.0000000   0.0000000   0.0000000   0.0000000   0.0000000   0.0000000   0.0000000   0.0000000
 NMagM=    2.7928460   0.0000000   2.7928460   2.7928460   0.0000000   2.7928460   2.7928460   0.0000000   2.7928460   2.7928460
 AtZNuc=   1.0000000   6.0000000   1.0000000   1.0000000   6.0000000   1.0000000   1.0000000   6.0000000   1.0000000   1.0000000

  Atom        21          22          23          24          25          26          27          28          29          30
 IAtWgt=          12           1           1          12          12          12          12           1          12           1
 AtmWgt=  12.0000000   1.0078250   1.0078250  12.0000000  12.0000000  12.0000000  12.0000000   1.0078250  12.0000000   1.0078250
 NucSpn=           0           1           1           0           0           0           0           1           0           1
 AtZEff=  -0.0000000  -0.0000000  -0.0000000  -0.0000000  -0.0000000  -0.0000000  -0.0000000  -0.0000000  -0.0000000  -0.0000000
 NQMom=    0.0000000   0.0000000   0.0000000   0.0000000   0.0000000   0.0000000   0.0000000   0.0000000   0.0000000   0.0000000
 NMagM=    0.0000000   2.7928460   2.7928460   0.0000000   0.0000000   0.0000000   0.0000000   2.7928460   0.0000000   2.7928460
 AtZNuc=   6.0000000   1.0000000   1.0000000   6.0000000   6.0000000   6.0000000   6.0000000   1.0000000   6.0000000   1.0000000

  Atom        31          32          33          34
 IAtWgt=          12           1           1           1
 AtmWgt=  12.0000000   1.0078250   1.0078250   1.0078250
 NucSpn=           0           1           1           1
 AtZEff=  -0.0000000  -0.0000000  -0.0000000  -0.0000000
 NQMom=    0.0000000   0.0000000   0.0000000   0.0000000
 NMagM=    0.0000000   2.7928460   2.7928460   2.7928460
 AtZNuc=   6.0000000   1.0000000   1.0000000   1.0000000
 Leave Link  101 at Mon Mar  4 13:43:53 2024, MaxMem= 14763950080 cpu:               4.8 elap:               0.2
 (Enter /apps/gaussian/g16-c01-avx2/g16/l103.exe)

 GradGradGradGradGradGradGradGradGradGradGradGradGradGradGradGradGradGrad
 Berny optimization.
 Initialization pass.
                           ----------------------------
                           !    Initial Parameters    !
                           ! (Angstroms and Degrees)  !
 --------------------------                            --------------------------
 ! Name  Definition              Value          Derivative Info.                !
 --------------------------------------------------------------------------------
 ! R1    R(1,2)                  1.4014         estimate D2E/DX2                !
 ! R2    R(1,6)                  1.4014         estimate D2E/DX2                !
 ! R3    R(1,7)                  1.07           estimate D2E/DX2                !
 ! R4    R(2,3)                  1.4014         estimate D2E/DX2                !
 ! R5    R(2,8)                  1.07           estimate D2E/DX2                !
 ! R6    R(3,4)                  1.4014         estimate D2E/DX2                !
 ! R7    R(3,9)                  1.07           estimate D2E/DX2                !
 ! R8    R(4,5)                  1.4014         estimate D2E/DX2                !
 ! R9    R(4,12)                 1.54           estimate D2E/DX2                !
 ! R10   R(5,6)                  1.4014         estimate D2E/DX2                !
 ! R11   R(5,10)                 1.07           estimate D2E/DX2                !
 ! R12   R(6,11)                 1.07           estimate D2E/DX2                !
 ! R13   R(12,13)                1.07           estimate D2E/DX2                !
 ! R14   R(12,14)                1.07           estimate D2E/DX2                !
 ! R15   R(12,15)                1.4014         estimate D2E/DX2                !
 ! R16   R(15,16)                1.07           estimate D2E/DX2                !
 ! R17   R(15,17)                1.07           estimate D2E/DX2                !
 ! R18   R(15,18)                1.54           estimate D2E/DX2                !
 ! R19   R(18,19)                1.07           estimate D2E/DX2                !
 ! R20   R(18,20)                1.07           estimate D2E/DX2                !
 ! R21   R(18,21)                1.4014         estimate D2E/DX2                !
 ! R22   R(21,22)                1.07           estimate D2E/DX2                !
 ! R23   R(21,23)                1.07           estimate D2E/DX2                !
 ! R24   R(21,24)                1.54           estimate D2E/DX2                !
 ! R25   R(24,25)                1.4014         estimate D2E/DX2                !
 ! R26   R(24,26)                1.4014         estimate D2E/DX2                !
 ! R27   R(25,27)                1.4014         estimate D2E/DX2                !
 ! R28   R(25,28)                1.07           estimate D2E/DX2                !
 ! R29   R(26,29)                1.4014         estimate D2E/DX2                !
 ! R30   R(26,30)                1.07           estimate D2E/DX2                !
 ! R31   R(27,31)                1.4014         estimate D2E/DX2                !
 ! R32   R(27,32)                1.07           estimate D2E/DX2                !
 ! R33   R(29,31)                1.4014         estimate D2E/DX2                !
 ! R34   R(29,33)                1.07           estimate D2E/DX2                !
 ! R35   R(31,34)                1.07           estimate D2E/DX2                !
 ! A1    A(2,1,6)              120.0            estimate D2E/DX2                !
 ! A2    A(2,1,7)              120.0            estimate D2E/DX2                !
 ! A3    A(6,1,7)              120.0            estimate D2E/DX2                !
 ! A4    A(1,2,3)              120.0            estimate D2E/DX2                !
 ! A5    A(1,2,8)              120.0            estimate D2E/DX2                !
 ! A6    A(3,2,8)              120.0            estimate D2E/DX2                !
 ! A7    A(2,3,4)              120.0            estimate D2E/DX2                !
 ! A8    A(2,3,9)              120.0            estimate D2E/DX2                !
 ! A9    A(4,3,9)              120.0            estimate D2E/DX2                !
 ! A10   A(3,4,5)              120.0            estimate D2E/DX2                !
 ! A11   A(3,4,12)             120.0            estimate D2E/DX2                !
 ! A12   A(5,4,12)             120.0            estimate D2E/DX2                !
 ! A13   A(4,5,6)              120.0            estimate D2E/DX2                !
 ! A14   A(4,5,10)             120.0            estimate D2E/DX2                !
 ! A15   A(6,5,10)             120.0            estimate D2E/DX2                !
 ! A16   A(1,6,5)              120.0            estimate D2E/DX2                !
 ! A17   A(1,6,11)             120.0            estimate D2E/DX2                !
 ! A18   A(5,6,11)             120.0            estimate D2E/DX2                !
 ! A19   A(4,12,13)            109.4712         estimate D2E/DX2                !
 ! A20   A(4,12,14)            109.4712         estimate D2E/DX2                !
 ! A21   A(4,12,15)            109.4712         estimate D2E/DX2                !
 ! A22   A(13,12,14)           109.4712         estimate D2E/DX2                !
 ! A23   A(13,12,15)           109.4712         estimate D2E/DX2                !
 ! A24   A(14,12,15)           109.4712         estimate D2E/DX2                !
 ! A25   A(12,15,16)           109.4712         estimate D2E/DX2                !
 ! A26   A(12,15,17)           109.4712         estimate D2E/DX2                !
 ! A27   A(12,15,18)           109.4712         estimate D2E/DX2                !
 ! A28   A(16,15,17)           109.4712         estimate D2E/DX2                !
 ! A29   A(16,15,18)           109.4712         estimate D2E/DX2                !
 ! A30   A(17,15,18)           109.4712         estimate D2E/DX2                !
 ! A31   A(15,18,19)           109.4712         estimate D2E/DX2                !
 ! A32   A(15,18,20)           109.4712         estimate D2E/DX2                !
 ! A33   A(15,18,21)           109.4712         estimate D2E/DX2                !
 ! A34   A(19,18,20)           109.4712         estimate D2E/DX2                !
 ! A35   A(19,18,21)           109.4712         estimate D2E/DX2                !
 ! A36   A(20,18,21)           109.4712         estimate D2E/DX2                !
 ! A37   A(18,21,22)           109.4712         estimate D2E/DX2                !
 ! A38   A(18,21,23)           109.4712         estimate D2E/DX2                !
 ! A39   A(18,21,24)           109.4712         estimate D2E/DX2                !
 ! A40   A(22,21,23)           109.4712         estimate D2E/DX2                !
 ! A41   A(22,21,24)           109.4712         estimate D2E/DX2                !
 ! A42   A(23,21,24)           109.4712         estimate D2E/DX2                !
 ! A43   A(21,24,25)           120.0            estimate D2E/DX2                !
 ! A44   A(21,24,26)           120.0            estimate D2E/DX2                !
 ! A45   A(25,24,26)           120.0            estimate D2E/DX2                !
 ! A46   A(24,25,27)           120.0            estimate D2E/DX2                !
 ! A47   A(24,25,28)           120.0            estimate D2E/DX2                !
 ! A48   A(27,25,28)           120.0            estimate D2E/DX2                !
 ! A49   A(24,26,29)           120.0            estimate D2E/DX2                !
 ! A50   A(24,26,30)           120.0            estimate D2E/DX2                !
 ! A51   A(29,26,30)           120.0            estimate D2E/DX2                !
 ! A52   A(25,27,31)           120.0            estimate D2E/DX2                !
 ! A53   A(25,27,32)           120.0            estimate D2E/DX2                !
 ! A54   A(31,27,32)           120.0            estimate D2E/DX2                !
 ! A55   A(26,29,31)           120.0            estimate D2E/DX2                !
 ! A56   A(26,29,33)           120.0            estimate D2E/DX2                !
 ! A57   A(31,29,33)           120.0            estimate D2E/DX2                !
 ! A58   A(27,31,29)           120.0            estimate D2E/DX2                !
 ! A59   A(27,31,34)           120.0            estimate D2E/DX2                !
 ! A60   A(29,31,34)           120.0            estimate D2E/DX2                !
 ! D1    D(6,1,2,3)              0.0            estimate D2E/DX2                !
 ! D2    D(6,1,2,8)           -179.9999         estimate D2E/DX2                !
 ! D3    D(7,1,2,3)            180.0            estimate D2E/DX2                !
 ! D4    D(7,1,2,8)              0.0            estimate D2E/DX2                !
 ! D5    D(2,1,6,5)              0.0            estimate D2E/DX2                !
 ! D6    D(2,1,6,11)          -179.9999         estimate D2E/DX2                !
 ! D7    D(7,1,6,5)           -179.9999         estimate D2E/DX2                !
 ! D8    D(7,1,6,11)             0.0002         estimate D2E/DX2                !
 ! D9    D(1,2,3,4)              0.0            estimate D2E/DX2                !
 ! D10   D(1,2,3,9)            180.0            estimate D2E/DX2                !
 ! D11   D(8,2,3,4)            179.9999         estimate D2E/DX2                !
 ! D12   D(8,2,3,9)             -0.0001         estimate D2E/DX2                !
 ! D13   D(2,3,4,5)              0.0            estimate D2E/DX2                !
 ! D14   D(2,3,4,12)           180.0            estimate D2E/DX2                !
 ! D15   D(9,3,4,5)            180.0            estimate D2E/DX2                !
 ! D16   D(9,3,4,12)             0.0            estimate D2E/DX2                !
 ! D17   D(3,4,5,6)              0.0001         estimate D2E/DX2                !
 ! D18   D(3,4,5,10)           180.0            estimate D2E/DX2                !
 ! D19   D(12,4,5,6)          -179.9999         estimate D2E/DX2                !
 ! D20   D(12,4,5,10)            0.0            estimate D2E/DX2                !
 ! D21   D(3,4,12,13)         -120.0            estimate D2E/DX2                !
 ! D22   D(3,4,12,14)            0.0            estimate D2E/DX2                !
 ! D23   D(3,4,12,15)          120.0            estimate D2E/DX2                !
 ! D24   D(5,4,12,13)           60.0            estimate D2E/DX2                !
 ! D25   D(5,4,12,14)          180.0            estimate D2E/DX2                !
 ! D26   D(5,4,12,15)          -60.0            estimate D2E/DX2                !
 ! D27   D(4,5,6,1)              0.0            estimate D2E/DX2                !
 ! D28   D(4,5,6,11)           179.9999         estimate D2E/DX2                !
 ! D29   D(10,5,6,1)          -179.9999         estimate D2E/DX2                !
 ! D30   D(10,5,6,11)           -0.0001         estimate D2E/DX2                !
 ! D31   D(4,12,15,16)         120.0            estimate D2E/DX2                !
 ! D32   D(4,12,15,17)           0.0            estimate D2E/DX2                !
 ! D33   D(4,12,15,18)        -120.0            estimate D2E/DX2                !
 ! D34   D(13,12,15,16)          0.0            estimate D2E/DX2                !
 ! D35   D(13,12,15,17)       -120.0            estimate D2E/DX2                !
 ! D36   D(13,12,15,18)        120.0            estimate D2E/DX2                !
 ! D37   D(14,12,15,16)       -120.0            estimate D2E/DX2                !
 ! D38   D(14,12,15,17)        120.0            estimate D2E/DX2                !
 ! D39   D(14,12,15,18)          0.0            estimate D2E/DX2                !
 ! D40   D(12,15,18,19)          0.0            estimate D2E/DX2                !
 ! D41   D(12,15,18,20)        120.0            estimate D2E/DX2                !
 ! D42   D(12,15,18,21)       -120.0            estimate D2E/DX2                !
 ! D43   D(16,15,18,19)        120.0            estimate D2E/DX2                !
 ! D44   D(16,15,18,20)       -120.0            estimate D2E/DX2                !
 ! D45   D(16,15,18,21)          0.0            estimate D2E/DX2                !
 ! D46   D(17,15,18,19)       -120.0            estimate D2E/DX2                !
 ! D47   D(17,15,18,20)          0.0            estimate D2E/DX2                !
 ! D48   D(17,15,18,21)        120.0            estimate D2E/DX2                !
 ! D49   D(15,18,21,22)        120.0            estimate D2E/DX2                !
 ! D50   D(15,18,21,23)          0.0            estimate D2E/DX2                !
 ! D51   D(15,18,21,24)       -120.0            estimate D2E/DX2                !
 ! D52   D(19,18,21,22)          0.0            estimate D2E/DX2                !
 ! D53   D(19,18,21,23)       -120.0            estimate D2E/DX2                !
 ! D54   D(19,18,21,24)        120.0            estimate D2E/DX2                !
 ! D55   D(20,18,21,22)       -120.0            estimate D2E/DX2                !
 ! D56   D(20,18,21,23)        120.0            estimate D2E/DX2                !
 ! D57   D(20,18,21,24)          0.0            estimate D2E/DX2                !
 ! D58   D(18,21,24,25)       -120.0            estimate D2E/DX2                !
 ! D59   D(18,21,24,26)         60.0            estimate D2E/DX2                !
 ! D60   D(22,21,24,25)          0.0            estimate D2E/DX2                !
 ! D61   D(22,21,24,26)        180.0            estimate D2E/DX2                !
 ! D62   D(23,21,24,25)        120.0            estimate D2E/DX2                !
 ! D63   D(23,21,24,26)        -60.0            estimate D2E/DX2                !
 ! D64   D(21,24,25,27)        179.9999         estimate D2E/DX2                !
 ! D65   D(21,24,25,28)          0.0            estimate D2E/DX2                !
 ! D66   D(26,24,25,27)         -0.0001         estimate D2E/DX2                !
 ! D67   D(26,24,25,28)       -180.0            estimate D2E/DX2                !
 ! D68   D(21,24,26,29)        180.0            estimate D2E/DX2                !
 ! D69   D(21,24,26,30)         -0.0001         estimate D2E/DX2                !
 ! D70   D(25,24,26,29)          0.0            estimate D2E/DX2                !
 ! D71   D(25,24,26,30)        179.9999         estimate D2E/DX2                !
 ! D72   D(24,25,27,31)          0.0002         estimate D2E/DX2                !
 ! D73   D(24,25,27,32)       -180.0            estimate D2E/DX2                !
 ! D74   D(28,25,27,31)       -179.9999         estimate D2E/DX2                !
 ! D75   D(28,25,27,32)          0.0            estimate D2E/DX2                !
 ! D76   D(24,26,29,31)          0.0            estimate D2E/DX2                !
 ! D77   D(24,26,29,33)       -179.9999         estimate D2E/DX2                !
 ! D78   D(30,26,29,31)       -179.9999         estimate D2E/DX2                !
 ! D79   D(30,26,29,33)          0.0001         estimate D2E/DX2                !
 ! D80   D(25,27,31,29)         -0.0002         estimate D2E/DX2                !
 ! D81   D(25,27,31,34)       -179.9999         estimate D2E/DX2                !
 ! D82   D(32,27,31,29)        180.0            estimate D2E/DX2                !
 ! D83   D(32,27,31,34)          0.0002         estimate D2E/DX2                !
 ! D84   D(26,29,31,27)          0.0001         estimate D2E/DX2                !
 ! D85   D(26,29,31,34)        179.9998         estimate D2E/DX2                !
 ! D86   D(33,29,31,27)       -180.0            estimate D2E/DX2                !
 ! D87   D(33,29,31,34)         -0.0002         estimate D2E/DX2                !
 --------------------------------------------------------------------------------
 Trust Radius=3.00D-01 FncErr=1.00D-07 GrdErr=1.00D-06 EigMax=2.50D+02 EigMin=1.00D-04
 Number of steps in this run=    192 maximum allowed number of steps=    204.
 GradGradGradGradGradGradGradGradGradGradGradGradGradGradGradGradGradGrad

 Leave Link  103 at Mon Mar  4 13:43:54 2024, MaxMem= 14763950080 cpu:               0.4 elap:               0.0
 (Enter /apps/gaussian/g16-c01-avx2/g16/l202.exe)
                          Input orientation:                          
 ---------------------------------------------------------------------
 Center     Atomic      Atomic             Coordinates (Angstroms)
 Number     Number       Type             X           Y           Z
 ---------------------------------------------------------------------
      1          6           0       -1.862331    1.275529   -0.934544
      2          6           0       -0.905552    1.678253    0.006897
      3          6           0       -0.949675    2.973199    0.540835
      4          6           0       -1.950576    3.865421    0.133333
      5          6           0       -2.907354    3.462698   -0.808109
      6          6           0       -2.863231    2.167752   -1.342047
      7          1           0       -1.828642    0.286809   -1.342218
      8          1           0       -0.141341    0.997022    0.318033
      9          1           0       -0.219153    3.280687    1.259646
     10          1           0       -3.671564    4.143929   -1.119246
     11          1           0       -3.593754    1.860263   -2.060856
     12          6           0       -1.999062    5.288438    0.720078
     13          1           0       -2.932874    5.435981    1.221204
     14          1           0       -1.196663    5.414571    1.416603
     15          6           0       -1.871072    6.224946   -0.314569
     16          1           0       -2.739734    6.849184   -0.340093
     17          1           0       -1.772234    5.712922   -1.248893
     18          6           0       -0.622451    7.092569   -0.070077
     19          1           0       -0.141809    6.779411    0.833148
     20          1           0        0.054753    6.982431   -0.891153
     21          6           0       -1.002658    8.436505    0.044817
     22          1           0       -0.715548    8.807430    1.006525
     23          1           0       -2.063738    8.517759   -0.066574
     24          6           0       -0.306532    9.262557   -1.052747
     25          6           0        0.549576   10.314817   -0.700965
     26          6           0       -0.529165    8.962005   -2.403311
     27          6           0        1.183052   11.066524   -1.699747
     28          1           0        0.719562   10.544294    0.330222
     29          6           0        0.104309    9.713714   -3.402094
     30          1           0       -1.182821    8.158581   -2.671905
     31          6           0        0.960417   10.765973   -3.050312
     32          1           0        1.836710   11.869947   -1.431154
     33          1           0       -0.065677    9.484236   -4.433280
     34          1           0        1.444091   11.339917   -3.812905
 ---------------------------------------------------------------------
                    Distance matrix (angstroms):
                    1          2          3          4          5
     1  C    0.000000
     2  C    1.401400   0.000000
     3  C    2.427296   1.401400   0.000000
     4  C    2.802800   2.427296   1.401400   0.000000
     5  C    2.427296   2.802800   2.427296   1.401400   0.000000
     6  C    1.401400   2.427296   2.802800   2.427296   1.401400
     7  H    1.070000   2.146700   3.396345   3.872800   3.396345
     8  H    2.146700   1.070000   2.146700   3.396345   3.872800
     9  H    3.396345   2.146700   1.070000   2.146700   3.396345
    10  H    3.396345   3.872800   3.396345   2.146700   1.070000
    11  H    2.146700   3.396345   3.872800   3.396345   2.146700
    12  C    4.342800   3.838989   2.548270   1.540000   2.548270
    13  H    4.806524   4.439043   3.234390   2.148263   2.830655
    14  H    4.806524   4.004010   2.605432   2.148263   3.418423
    15  C    4.988103   4.659183   3.486337   2.402976   2.991233
    16  H    5.673521   5.497560   4.359313   3.122458   3.422780
    17  H    4.449426   4.313549   3.374287   2.314220   2.558573
    18  C    6.010204   5.422259   4.177260   3.495679   4.352176
    19  H    6.031388   5.223773   3.901967   3.500388   4.619799
    20  H    6.020450   5.464704   4.374175   3.845343   4.601032
    21  C    7.278582   6.759056   5.486033   4.669174   5.393895
    22  H    7.862085   7.201425   5.857469   5.168289   6.055004
    23  H    7.296837   6.937264   5.687902   4.658005   5.178340
    24  C    8.138003   7.681363   6.519905   5.765305   6.361013
    25  C    9.358449   8.786848   7.595339   6.967174   7.675505
    26  C    7.938295   7.681395   6.686601   5.867720   6.200229
    27  C   10.282192   9.768036   8.664332   8.064470   8.680127
    28  H    9.704422   9.019547   7.755785   7.195537   8.037370
    29  C    9.008853   8.786903   7.879855   7.136128   7.407703
    30  H    7.131378   7.017657   6.104445   5.185559   5.338451
    31  C   10.124866   9.768062   8.790457   8.138003   8.562999
    32  H   11.232596  10.651696   9.529156   8.992418   9.673477
    33  H    9.102307   9.019642   8.241170   7.481837   7.581287
    34  H   10.977673  10.651736   9.730732   9.108493   9.487595
                    6          7          8          9         10
     6  C    0.000000
     7  H    2.146700   0.000000
     8  H    3.396345   2.471400   0.000000
     9  H    3.872800   4.280590   2.471400   0.000000
    10  H    2.146700   4.280590   4.942800   4.280590   0.000000
    11  H    1.070000   2.471400   4.280590   4.942800   2.471400
    12  C    3.838989   5.412800   4.693509   2.736837   2.736837
    13  H    4.154086   5.856999   5.320971   3.465696   2.773584
    14  H    4.574870   5.856999   4.672827   2.352366   3.764332
    15  C    4.301269   6.026552   5.542864   3.725003   2.867038
    16  H    4.789047   6.700680   6.436815   4.652598   2.965433
    17  H    3.710416   5.427208   5.230180   3.823689   2.466982
    18  C    5.558132   7.027916   6.126809   4.057247   4.369476
    19  H    5.779707   7.052056   5.805288   3.525472   4.818379
    20  H    5.647927   6.970078   6.109477   4.289973   4.689835
    21  C    6.684489   8.308047   7.494159   5.354638   5.186936
    22  H    7.362992   8.908229   7.861693   5.554761   5.916517
    23  H    6.525995   8.332531   7.772067   5.708614   4.777406
    24  C    7.546964   9.108494   8.380060   6.413857   6.126028
    25  C    8.856236  10.326086   9.398778   7.342610   7.488180
    26  C    7.261958   8.835926   8.425977   6.766886   5.893840
    27  C    9.782050  11.198230  10.354725   8.446505   8.475057
    28  H    9.262794  10.700766   9.586017   7.382751   7.896051
    29  C    8.366100   9.841032   9.480528   7.951118   7.105710
    30  H    6.362573   8.009365   7.830220   6.338738   4.972124
    31  C    9.563884  10.977673  10.391922   8.717605   8.308774
    32  H   10.781001  12.149559  11.188961   9.232679   9.493667
    33  H    8.420985   9.861814   9.726948   8.421222   7.245973
    34  H   10.430091  11.789244  11.249610   9.666869   9.230816
                   11         12         13         14         15
    11  H    0.000000
    12  C    4.693509   0.000000
    13  H    4.898412   1.070000   0.000000
    14  H    5.520134   1.070000   1.747303   0.000000
    15  C    5.006757   1.401400   2.026940   2.026940   0.000000
    16  H    5.346000   2.026940   2.114733   2.743203   1.070000
    17  H    4.338226   2.026940   2.743203   2.743203   1.070000
    18  C    6.337892   2.402976   3.122458   2.314220   1.540000
    19  H    6.670023   2.384360   3.121768   1.820968   2.148263
    20  H    6.396594   3.111886   3.972339   3.057771   2.148263
    21  C    7.375269   3.370329   3.756696   3.324382   2.402976
    22  H    8.121332   3.756696   4.040952   3.451250   3.122458
    23  H    7.116204   3.324382   3.451250   3.547028   2.314220
    24  C    8.161867   4.669174   5.168289   4.658005   3.495679
    25  C    9.512937   5.812005   6.294857   5.616569   4.768216
    26  C    7.742333   5.040958   5.598908   5.255624   3.695275
    27  C   10.378030   7.026214   7.561469   6.878899   5.889590
    28  H    9.986709   5.930171   6.342634   5.582670   5.077786
    29  C    8.783580   6.403088   6.992736   6.587488   5.060281
    30  H    6.771616   4.517689   5.062759   4.923990   3.125647
    31  C   10.051427   7.278582   7.862085   7.296837   6.010204
    32  H   11.405272   7.915630   8.436815   7.680035   6.845469
    33  H    8.729301   6.920968   7.522126   7.215430   5.553936
    34  H   10.877197   8.308047   8.908229   8.332530   7.027915
                   16         17         18         19         20
    16  H    0.000000
    17  H    1.747303   0.000000
    18  C    2.148263   2.148263   0.000000
    19  H    2.851417   2.851417   1.070000   0.000000
    20  H    2.851417   2.253333   1.070000   1.747303   0.000000
    21  C    2.384360   3.111886   1.401400   2.026940   2.026940
    22  H    3.121768   3.972339   2.026940   2.114733   2.743203
    23  H    1.820968   3.057771   2.026940   2.743203   2.743203
    24  C    3.500388   3.845343   2.402976   3.122458   2.314220
    25  C    4.791701   5.183480   3.486337   3.915432   3.374287
    26  C    3.688834   3.665303   2.991233   3.922809   2.558573
    27  C    5.918011   6.131724   4.659182   5.152684   4.313548
    28  H    5.105868   5.660813   3.725003   3.894771   3.823689
    29  C    5.066553   4.915691   4.301269   5.158292   3.710416
    30  H    3.094485   2.890262   2.867037   3.907840   2.466981
    31  C    6.031388   6.020450   4.988103   5.673521   4.449425
    32  H    6.880575   7.139093   5.542864   5.912289   5.230180
    33  H    5.554121   5.222592   5.006756   5.920907   4.338225
    34  H    7.052056   6.970077   6.026551   6.700679   5.427208
                   21         22         23         24         25
    21  C    0.000000
    22  H    1.070000   0.000000
    23  H    1.070000   1.747303   0.000000
    24  C    1.540000   2.148263   2.148263   0.000000
    25  C    2.548270   2.605432   3.234390   1.401400   0.000000
    26  C    2.548270   3.418423   2.830655   1.401400   2.427296
    27  C    3.838989   4.004010   4.439043   2.427296   1.401400
    28  H    2.736837   2.352366   3.465696   2.146700   1.070000
    29  C    3.838989   4.574870   4.154086   2.427296   2.802800
    30  H    2.736837   3.764332   2.773584   2.146700   3.396345
    31  C    4.342800   4.806524   4.806524   2.802800   2.427296
    32  H    4.693509   4.672827   5.320971   3.396345   2.146700
    33  H    4.693509   5.520134   4.898413   3.396345   3.872800
    34  H    5.412800   5.856999   5.856999   3.872800   3.396345
                   26         27         28         29         30
    26  C    0.000000
    27  C    2.802800   0.000000
    28  H    3.396345   2.146700   0.000000
    29  C    1.401400   2.427296   3.872800   0.000000
    30  H    1.070000   3.872800   4.280590   2.146700   0.000000
    31  C    2.427296   1.401400   3.396345   1.401400   3.396345
    32  H    3.872800   1.070000   2.471400   3.396345   4.942800
    33  H    2.146700   3.396345   4.942800   1.070000   2.471400
    34  H    3.396345   2.146700   4.280590   2.146700   4.280590
                   31         32         33         34
    31  C    0.000000
    32  H    2.146700   0.000000
    33  H    2.146700   4.280590   0.000000
    34  H    1.070000   2.471400   2.471400   0.000000
 Stoichiometry    C16H18
 Framework group  C1[X(C16H18)]
 Deg. of freedom    96
 Full point group                 C1      NOp   1
 Largest Abelian subgroup         C1      NOp   1
 Largest concise Abelian subgroup C1      NOp   1
                         Standard orientation:                         
 ---------------------------------------------------------------------
 Center     Atomic      Atomic             Coordinates (Angstroms)
 Number     Number       Type             X           Y           Z
 ---------------------------------------------------------------------
      1          6           0        5.077403    1.078911    0.593663
      2          6           0        4.604485    0.057004    1.427916
      3          6           0        3.504049   -0.716190    1.034046
      4          6           0        2.876531   -0.467477   -0.194077
      5          6           0        3.349448    0.554431   -1.028329
      6          6           0        4.449885    1.327624   -0.634459
      7          1           0        5.917610    1.669262    0.894392
      8          1           0        5.083608   -0.132893    2.365615
      9          1           0        3.142966   -1.496439    1.671016
     10          1           0        2.870325    0.744328   -1.966028
     11          1           0        4.810969    2.107872   -1.271430
     12          6           0        1.667261   -1.317141   -0.626901
     13          1           0        1.893153   -1.817133   -1.545531
     14          1           0        1.451446   -2.042006    0.129997
     15          6           0        0.553628   -0.486116   -0.808949
     16          1           0        0.212665   -0.563105   -1.820243
     17          1           0        0.826980    0.527239   -0.600884
     18          6           0       -0.572833   -0.920570    0.147051
     19          1           0       -0.244330   -1.756317    0.728870
     20          1           0       -0.821262   -0.108456    0.797937
     21          6           0       -1.702786   -1.284972   -0.597488
     22          1           0       -1.949446   -2.306205   -0.394651
     23          1           0       -1.495278   -1.168597   -1.640703
     24          6           0       -2.888144   -0.383096   -0.206149
     25          6           0       -4.054502   -0.950050    0.324974
     26          6           0       -2.800460    1.004567   -0.381153
     27          6           0       -5.133177   -0.129343    0.681095
     28          1           0       -4.121450   -2.009562    0.458594
     29          6           0       -3.879136    1.825274   -0.025035
     30          1           0       -1.909919    1.437450   -0.786676
     31          6           0       -5.045494    1.258320    0.506088
     32          1           0       -6.023717   -0.562225    1.086619
     33          1           0       -3.812188    2.884785   -0.158655
     34          1           0       -5.869086    1.884948    0.777995
 ---------------------------------------------------------------------
 Rotational constants (GHZ):           1.4520691           0.1810460           0.1738613
 Leave Link  202 at Mon Mar  4 13:43:54 2024, MaxMem= 14763950080 cpu:               0.1 elap:               0.0
 (Enter /apps/gaussian/g16-c01-avx2/g16/l301.exe)
 Standard basis: TZVP (5D, 7F)
 Ernie: Thresh=  0.10000D-02 Tol=  0.10000D-05 Strict=F.
 There are   428 symmetry adapted cartesian basis functions of A   symmetry.
 There are   412 symmetry adapted basis functions of A   symmetry.
   412 basis functions,   704 primitive gaussians,   428 cartesian basis functions
    57 alpha electrons       57 beta electrons
       nuclear repulsion energy       963.5999155827 Hartrees.
 IExCor=20419 DFT=T Ex+Corr=CAM-B3LYP ExCW=0 ScaHFX=  1.000000
 ScaDFX=  1.000000  1.000000  1.000000  0.810000 ScalE2=  1.000000  1.000000
 IRadAn=      5 IRanWt=     -1 IRanGd=            0 ICorTp=0 IEmpDi=  4
 HFx  wShort=  0.000000 wLong=  0.330000 cFull=  0.190000 cShort=  0.000000 cLong=  0.460000
 DFx  wShort=  0.000000 wLong=  0.330000 cFull=  0.190000 cShort=  0.000000 cLong=  0.460000
 NAtoms=   34 NActive=   34 NUniq=   34 SFac= 1.00D+00 NAtFMM=   60 NAOKFM=F Big=F
 Integral buffers will be    131072 words long.
 Raffenetti 2 integral format.
 Two-electron integral symmetry is turned on.
 ------------------------------------------------------------------------------
 Polarizable Continuum Model (PCM)
 =================================
 Model                : PCM.
 Atomic radii         : UFF (Universal Force Field).
 Polarization charges : Total charges.
 Charge compensation  : None.
 Solution method      : On-the-fly selection.
 Cavity type          : Scaled VdW (van der Waals Surface) (Alpha=1.100).
 Cavity algorithm     : GePol (No added spheres)
                        Default sphere list used, NSphG=   34.
                        Lebedev-Laikov grids with approx.  5.0 points / Ang**2.
                        Smoothing algorithm: York/Karplus (Gamma=1.0000).
                        Polarization charges: spherical gaussians, with
                                              point-specific exponents (IZeta= 3).
                        Self-potential: point-specific (ISelfS= 7).
                        Self-field    : sphere-specific E.n sum rule (ISelfD= 2).
 1st derivatives      : Analytical E(r).r(x)/FMM algorithm (CHGder, D1EAlg=3).
                        Cavity 1st derivative terms included.
 Solvent              : CycloHexane, Eps=   2.016500 Eps(inf)=   2.035188
 ------------------------------------------------------------------------------
 GePol: Number of generator spheres                  =      34
 GePol: Total number of spheres                      =      34
 GePol: Number of exposed spheres                    =      34 (100.00%)
 GePol: Number of points                             =    2406
 GePol: Average weight of points                     =       0.13
 GePol: Minimum weight of points                     =   0.18D-10
 GePol: Maximum weight of points                     =    0.20577
 GePol: Number of points with low weight             =     144
 GePol: Fraction of low-weight points (<1% of avg)   =       5.99%
 GePol: Cavity surface area                          =    317.935 Ang**2
 GePol: Cavity volume                                =    335.687 Ang**3
 Leave Link  301 at Mon Mar  4 13:43:54 2024, MaxMem= 14763950080 cpu:               2.6 elap:               0.1
 (Enter /apps/gaussian/g16-c01-avx2/g16/l302.exe)
 NPDir=0 NMtPBC=     1 NCelOv=     1 NCel=       1 NClECP=     1 NCelD=      1
         NCelK=      1 NCelE2=     1 NClLst=     1 CellRange=     0.0.
 One-electron integrals computed using PRISM.
 One-electron integral symmetry used in STVInt
 NBasis=   412 RedAO= T EigKep=  9.30D-06  NBF=   412
 NBsUse=   412 1.00D-06 EigRej= -1.00D+00 NBFU=   412
 Precomputing XC quadrature grid using
 IXCGrd= 4 IRadAn=           5 IRanWt=          -1 IRanGd=           0 AccXCQ= 0.00D+00.
 Generated NRdTot=       0 NPtTot=           0 NUsed=           0 NTot=          32
 NSgBfM=   418   418   418   418   418 MxSgAt=    34 MxSgA2=    34.
 Leave Link  302 at Mon Mar  4 13:43:55 2024, MaxMem= 14763950080 cpu:              10.4 elap:               0.3
 (Enter /apps/gaussian/g16-c01-avx2/g16/l303.exe)
 DipDrv:  MaxL=1.
 Leave Link  303 at Mon Mar  4 13:43:55 2024, MaxMem= 14763950080 cpu:               1.2 elap:               0.1
 (Enter /apps/gaussian/g16-c01-avx2/g16/l401.exe)
 ExpMin= 9.52D-02 ExpMax= 1.36D+04 ExpMxC= 4.63D+02 IAcc=3 IRadAn=         5 AccDes= 0.00D+00
 Harris functional with IExCor=20419 and IRadAn=       5 diagonalized for initial guess.
 HarFok:  IExCor=20419 AccDes= 0.00D+00 IRadAn=         5 IDoV= 1 UseB2=F ITyADJ=14
 ICtDFT=  3500011 ScaDFX=  1.000000  1.000000  1.000000  1.000000
 FoFCou: FMM=F IPFlag=           0 FMFlag=      100000 FMFlg1=           0
         NFxFlg=           0 DoJE=T BraDBF=F KetDBF=T FulRan=T
         wScrn=  0.000000 ICntrl=       500 IOpCl=  0 I1Cent=   200000004 NGrid=           0
         NMat0=    1 NMatS0=      1 NMatT0=    0 NMatD0=    1 NMtDS0=    0 NMtDT0=    0
 Petite list used in FoFCou.
 Harris En= -594.237673069782    
 JPrj=0 DoOrth=F DoCkMO=F.
 Leave Link  401 at Mon Mar  4 13:43:56 2024, MaxMem= 14763950080 cpu:              23.3 elap:               0.8
 (Enter /apps/gaussian/g16-c01-avx2/g16/l502.exe)
 Integral symmetry usage will be decided dynamically.
 Closed shell SCF:
 Using DIIS extrapolation, IDIIS=  1040.
 NGot= 14763950080 LenX= 14763564818 LenY= 14763381193
 Requested convergence on RMS density matrix=1.00D-08 within 128 cycles.
 Requested convergence on MAX density matrix=1.00D-06.
 Requested convergence on             energy=1.00D-06.
 No special actions if energy rises.
 Fock matrices will be formed incrementally for  20 cycles.

 Cycle   1  Pass 1  IDiag  1:
 FoFJK:  IHMeth= 1 ICntrl=       0 DoSepK=T KAlg= 0 I1Cent=           0 FoldK=F
 IRaf=         1 NMat=       1 IRICut=       1 DoRegI=T DoRafI=F ISym2E= 0 IDoP0=0 IntGTp=1.
 FoFCou: FMM=F IPFlag=           0 FMFlag=      100000 FMFlg1=           0
         NFxFlg=           0 DoJE=T BraDBF=F KetDBF=F FulRan=T
         wScrn=  0.000000 ICntrl=       500 IOpCl=  0 I1Cent=           0 NGrid=           0
         NMat0=    1 NMatS0=      1 NMatT0=    0 NMatD0=    1 NMtDS0=    0 NMtDT0=    0
 Symmetry not used in FoFCou.
 Inv3:  Mode=1 IEnd=    17366508.
 Iteration    1 A*A^-1 deviation from unit magnitude is 3.11D-15 for     69.
 Iteration    1 A*A^-1 deviation from orthogonality  is 1.77D-15 for   1733    560.
 Iteration    1 A^-1*A deviation from unit magnitude is 2.89D-15 for    119.
 Iteration    1 A^-1*A deviation from orthogonality  is 2.00D-15 for   2397   1657.
 E= -620.147669888689    
 DIIS: error= 4.08D-02 at cycle   1 NSaved=   1.
 NSaved= 1 IEnMin= 1 EnMin= -620.147669888689     IErMin= 1 ErrMin= 4.08D-02
 ErrMax= 4.08D-02  0.00D+00 EMaxC= 1.00D-01 BMatC= 1.05D+00 BMatP= 1.05D+00
 IDIUse=3 WtCom= 5.92D-01 WtEn= 4.08D-01
 Coeff-Com:  0.100D+01
 Coeff-En:   0.100D+01
 Coeff:      0.100D+01
 Gap=     0.319 Goal=   None    Shift=    0.000
 GapD=    0.319 DampG=1.000 DampE=0.500 DampFc=0.5000 IDamp=-1.
 Damping current iteration by 5.00D-01
 RMSDP=2.33D-03 MaxDP=1.04D-01              OVMax= 7.52D-02

 Cycle   2  Pass 1  IDiag  1:
 RMSU=  1.08D-03    CP:  9.55D-01
 E= -620.236201754254     Delta-E=       -0.088531865565 Rises=F Damp=T
 DIIS: error= 1.97D-02 at cycle   2 NSaved=   2.
 NSaved= 2 IEnMin= 2 EnMin= -620.236201754254     IErMin= 2 ErrMin= 1.97D-02
 ErrMax= 1.97D-02  0.00D+00 EMaxC= 1.00D-01 BMatC= 2.28D-01 BMatP= 1.05D+00
 IDIUse=3 WtCom= 8.03D-01 WtEn= 1.97D-01
 Coeff-Com: -0.762D+00 0.176D+01
 Coeff-En:   0.000D+00 0.100D+01
 Coeff:     -0.612D+00 0.161D+01
 Gap=     0.348 Goal=   None    Shift=    0.000
 RMSDP=1.21D-03 MaxDP=4.59D-02 DE=-8.85D-02 OVMax= 5.24D-02

 Cycle   3  Pass 1  IDiag  1:
 RMSU=  9.95D-04    CP:  9.19D-01  1.56D+00
 E= -620.304068869293     Delta-E=       -0.067867115039 Rises=F Damp=F
 DIIS: error= 5.31D-03 at cycle   3 NSaved=   3.
 NSaved= 3 IEnMin= 3 EnMin= -620.304068869293     IErMin= 3 ErrMin= 5.31D-03
 ErrMax= 5.31D-03  0.00D+00 EMaxC= 1.00D-01 BMatC= 1.76D-02 BMatP= 2.28D-01
 IDIUse=3 WtCom= 9.47D-01 WtEn= 5.31D-02
 Coeff-Com: -0.335D+00 0.722D+00 0.613D+00
 Coeff-En:   0.000D+00 0.000D+00 0.100D+01
 Coeff:     -0.317D+00 0.684D+00 0.633D+00
 Gap=     0.323 Goal=   None    Shift=    0.000
 RMSDP=4.47D-04 MaxDP=1.29D-02 DE=-6.79D-02 OVMax= 2.05D-02

 Cycle   4  Pass 1  IDiag  1:
 RMSU=  1.75D-04    CP:  9.12D-01  1.80D+00  6.86D-01
 E= -620.320037359041     Delta-E=       -0.015968489749 Rises=F Damp=F
 DIIS: error= 5.69D-04 at cycle   4 NSaved=   4.
 NSaved= 4 IEnMin= 4 EnMin= -620.320037359041     IErMin= 4 ErrMin= 5.69D-04
 ErrMax= 5.69D-04  0.00D+00 EMaxC= 1.00D-01 BMatC= 2.23D-04 BMatP= 1.76D-02
 IDIUse=3 WtCom= 9.94D-01 WtEn= 5.69D-03
 Coeff-Com: -0.126D+00 0.273D+00 0.263D+00 0.590D+00
 Coeff-En:   0.000D+00 0.000D+00 0.000D+00 0.100D+01
 Coeff:     -0.126D+00 0.271D+00 0.262D+00 0.593D+00
 Gap=     0.322 Goal=   None    Shift=    0.000
 RMSDP=6.90D-05 MaxDP=1.49D-03 DE=-1.60D-02 OVMax= 2.77D-03

 Cycle   5  Pass 1  IDiag  1:
 RMSU=  4.42D-05    CP:  9.12D-01  1.79D+00  7.29D-01  8.25D-01
 E= -620.320242672434     Delta-E=       -0.000205313392 Rises=F Damp=F
 DIIS: error= 1.90D-04 at cycle   5 NSaved=   5.
 NSaved= 5 IEnMin= 5 EnMin= -620.320242672434     IErMin= 5 ErrMin= 1.90D-04
 ErrMax= 1.90D-04  0.00D+00 EMaxC= 1.00D-01 BMatC= 1.18D-05 BMatP= 2.23D-04
 IDIUse=3 WtCom= 9.98D-01 WtEn= 1.90D-03
 Coeff-Com:  0.775D-02-0.169D-01-0.839D-02 0.177D+00 0.841D+00
 Coeff-En:   0.000D+00 0.000D+00 0.000D+00 0.000D+00 0.100D+01
 Coeff:      0.774D-02-0.169D-01-0.838D-02 0.177D+00 0.841D+00
 Gap=     0.322 Goal=   None    Shift=    0.000
 RMSDP=2.26D-05 MaxDP=8.06D-04 DE=-2.05D-04 OVMax= 1.28D-03

 Cycle   6  Pass 1  IDiag  1:
 RMSU=  1.34D-05    CP:  9.12D-01  1.80D+00  7.38D-01  9.01D-01  9.76D-01
 E= -620.320253903017     Delta-E=       -0.000011230584 Rises=F Damp=F
 DIIS: error= 1.00D-04 at cycle   6 NSaved=   6.
 NSaved= 6 IEnMin= 6 EnMin= -620.320253903017     IErMin= 6 ErrMin= 1.00D-04
 ErrMax= 1.00D-04  0.00D+00 EMaxC= 1.00D-01 BMatC= 2.26D-06 BMatP= 1.18D-05
 IDIUse=3 WtCom= 9.99D-01 WtEn= 1.00D-03
 Coeff-Com:  0.115D-01-0.250D-01-0.197D-01 0.551D-01 0.427D+00 0.551D+00
 Coeff-En:   0.000D+00 0.000D+00 0.000D+00 0.000D+00 0.000D+00 0.100D+01
 Coeff:      0.115D-01-0.250D-01-0.197D-01 0.550D-01 0.427D+00 0.551D+00
 Gap=     0.322 Goal=   None    Shift=    0.000
 RMSDP=5.47D-06 MaxDP=1.27D-04 DE=-1.12D-05 OVMax= 3.98D-04

 Cycle   7  Pass 1  IDiag  1:
 RMSU=  3.91D-06    CP:  9.12D-01  1.80D+00  7.38D-01  9.15D-01  1.00D+00
                    CP:  8.84D-01
 E= -620.320256236744     Delta-E=       -0.000002333727 Rises=F Damp=F
 DIIS: error= 9.69D-06 at cycle   7 NSaved=   7.
 NSaved= 7 IEnMin= 7 EnMin= -620.320256236744     IErMin= 7 ErrMin= 9.69D-06
 ErrMax= 9.69D-06  0.00D+00 EMaxC= 1.00D-01 BMatC= 4.93D-08 BMatP= 2.26D-06
 IDIUse=1 WtCom= 1.00D+00 WtEn= 0.00D+00
 Coeff-Com:  0.252D-02-0.543D-02-0.439D-02 0.836D-04 0.418D-01 0.142D+00
 Coeff-Com:  0.824D+00
 Coeff:      0.252D-02-0.543D-02-0.439D-02 0.836D-04 0.418D-01 0.142D+00
 Coeff:      0.824D+00
 Gap=     0.322 Goal=   None    Shift=    0.000
 RMSDP=1.41D-06 MaxDP=5.17D-05 DE=-2.33D-06 OVMax= 9.04D-05

 Cycle   8  Pass 1  IDiag  1:
 RMSU=  9.31D-07    CP:  9.12D-01  1.80D+00  7.38D-01  9.17D-01  1.01D+00
                    CP:  9.38D-01  9.77D-01
 E= -620.320256299502     Delta-E=       -0.000000062758 Rises=F Damp=F
 DIIS: error= 2.15D-06 at cycle   8 NSaved=   8.
 NSaved= 8 IEnMin= 8 EnMin= -620.320256299502     IErMin= 8 ErrMin= 2.15D-06
 ErrMax= 2.15D-06  0.00D+00 EMaxC= 1.00D-01 BMatC= 3.53D-09 BMatP= 4.93D-08
 IDIUse=1 WtCom= 1.00D+00 WtEn= 0.00D+00
 Coeff-Com: -0.200D-04 0.563D-04 0.614D-04-0.323D-02-0.146D-01-0.128D-02
 Coeff-Com:  0.209D+00 0.810D+00
 Coeff:     -0.200D-04 0.563D-04 0.614D-04-0.323D-02-0.146D-01-0.128D-02
 Coeff:      0.209D+00 0.810D+00
 Gap=     0.322 Goal=   None    Shift=    0.000
 RMSDP=4.15D-07 MaxDP=1.15D-05 DE=-6.28D-08 OVMax= 1.96D-05

 Cycle   9  Pass 1  IDiag  1:
 RMSU=  2.78D-07    CP:  9.12D-01  1.80D+00  7.38D-01  9.17D-01  1.01D+00
                    CP:  9.49D-01  1.03D+00  1.01D+00
 E= -620.320256303657     Delta-E=       -0.000000004155 Rises=F Damp=F
 DIIS: error= 1.40D-06 at cycle   9 NSaved=   9.
 NSaved= 9 IEnMin= 9 EnMin= -620.320256303657     IErMin= 9 ErrMin= 1.40D-06
 ErrMax= 1.40D-06  0.00D+00 EMaxC= 1.00D-01 BMatC= 6.92D-10 BMatP= 3.53D-09
 IDIUse=1 WtCom= 1.00D+00 WtEn= 0.00D+00
 Coeff-Com: -0.215D-03 0.471D-03 0.382D-03-0.140D-02-0.946D-02-0.138D-01
 Coeff-Com:  0.186D-01 0.341D+00 0.664D+00
 Coeff:     -0.215D-03 0.471D-03 0.382D-03-0.140D-02-0.946D-02-0.138D-01
 Coeff:      0.186D-01 0.341D+00 0.664D+00
 Gap=     0.322 Goal=   None    Shift=    0.000
 RMSDP=1.21D-07 MaxDP=3.90D-06 DE=-4.16D-09 OVMax= 1.01D-05

 Cycle  10  Pass 1  IDiag  1:
 RMSU=  8.13D-08    CP:  9.12D-01  1.80D+00  7.38D-01  9.17D-01  1.01D+00
                    CP:  9.53D-01  1.04D+00  1.08D+00  9.91D-01
 E= -620.320256304488     Delta-E=       -0.000000000830 Rises=F Damp=F
 DIIS: error= 4.69D-07 at cycle  10 NSaved=  10.
 NSaved=10 IEnMin=10 EnMin= -620.320256304488     IErMin=10 ErrMin= 4.69D-07
 ErrMax= 4.69D-07  0.00D+00 EMaxC= 1.00D-01 BMatC= 4.79D-11 BMatP= 6.92D-10
 IDIUse=1 WtCom= 1.00D+00 WtEn= 0.00D+00
 Coeff-Com: -0.433D-04 0.933D-04 0.688D-04-0.834D-04-0.778D-03-0.357D-02
 Coeff-Com: -0.133D-01 0.268D-02 0.171D+00 0.843D+00
 Coeff:     -0.433D-04 0.933D-04 0.688D-04-0.834D-04-0.778D-03-0.357D-02
 Coeff:     -0.133D-01 0.268D-02 0.171D+00 0.843D+00
 Gap=     0.322 Goal=   None    Shift=    0.000
 RMSDP=4.89D-08 MaxDP=1.31D-06 DE=-8.30D-10 OVMax= 4.97D-06

 Cycle  11  Pass 1  IDiag  1:
 RMSU=  3.05D-08    CP:  9.12D-01  1.80D+00  7.38D-01  9.17D-01  1.01D+00
                    CP:  9.52D-01  1.05D+00  1.10D+00  1.06D+00  9.74D-01
 E= -620.320256304577     Delta-E=       -0.000000000090 Rises=F Damp=F
 DIIS: error= 3.39D-07 at cycle  11 NSaved=  11.
 NSaved=11 IEnMin=11 EnMin= -620.320256304577     IErMin=11 ErrMin= 3.39D-07
 ErrMax= 3.39D-07  0.00D+00 EMaxC= 1.00D-01 BMatC= 1.15D-11 BMatP= 4.79D-11
 IDIUse=1 WtCom= 1.00D+00 WtEn= 0.00D+00
 Coeff-Com:  0.126D-04-0.283D-04-0.247D-04 0.177D-03 0.116D-02 0.612D-03
 Coeff-Com: -0.842D-02-0.543D-01-0.321D-01 0.356D+00 0.737D+00
 Coeff:      0.126D-04-0.283D-04-0.247D-04 0.177D-03 0.116D-02 0.612D-03
 Coeff:     -0.842D-02-0.543D-01-0.321D-01 0.356D+00 0.737D+00
 Gap=     0.322 Goal=   None    Shift=    0.000
 RMSDP=1.83D-08 MaxDP=3.67D-07 DE=-8.96D-11 OVMax= 2.38D-06

 Cycle  12  Pass 1  IDiag  1:
 RMSU=  1.20D-08    CP:  9.12D-01  1.80D+00  7.38D-01  9.17D-01  1.01D+00
                    CP:  9.52D-01  1.05D+00  1.10D+00  1.08D+00  1.08D+00
                    CP:  1.13D+00
 E= -620.320256304602     Delta-E=       -0.000000000025 Rises=F Damp=F
 DIIS: error= 6.85D-08 at cycle  12 NSaved=  12.
 NSaved=12 IEnMin=12 EnMin= -620.320256304602     IErMin=12 ErrMin= 6.85D-08
 ErrMax= 6.85D-08  0.00D+00 EMaxC= 1.00D-01 BMatC= 1.06D-12 BMatP= 1.15D-11
 IDIUse=1 WtCom= 1.00D+00 WtEn= 0.00D+00
 Coeff-Com:  0.921D-05-0.201D-04-0.146D-04 0.531D-04 0.398D-03 0.723D-03
 Coeff-Com: -0.200D-03-0.149D-01-0.342D-01-0.316D-01 0.194D+00 0.886D+00
 Coeff:      0.921D-05-0.201D-04-0.146D-04 0.531D-04 0.398D-03 0.723D-03
 Coeff:     -0.200D-03-0.149D-01-0.342D-01-0.316D-01 0.194D+00 0.886D+00
 Gap=     0.322 Goal=   None    Shift=    0.000
 RMSDP=7.05D-09 MaxDP=1.81D-07 DE=-2.51D-11 OVMax= 1.07D-06

 Error on total polarization charges =  0.01168
 SCF Done:  E(RCAM-B3LYP) =  -620.320256305     A.U. after   12 cycles
            NFock= 12  Conv=0.71D-08     -V/T= 2.0033
 KE= 6.182734915287D+02 PE=-3.366072950361D+03 EE= 1.163879286945D+03
 Leave Link  502 at Mon Mar  4 13:44:41 2024, MaxMem= 14763950080 cpu:            1364.2 elap:              44.9
 (Enter /apps/gaussian/g16-c01-avx2/g16/l601.exe)
 Copying SCF densities to generalized density rwf, IOpCl= 0 IROHF=0.

 **********************************************************************

            Population analysis using the SCF Density.

 **********************************************************************

 Orbital symmetries:
       Occupied  (A) (A) (A) (A) (A) (A) (A) (A) (A) (A) (A) (A)
                 (A) (A) (A) (A) (A) (A) (A) (A) (A) (A) (A) (A)
                 (A) (A) (A) (A) (A) (A) (A) (A) (A) (A) (A) (A)
                 (A) (A) (A) (A) (A) (A) (A) (A) (A) (A) (A) (A)
                 (A) (A) (A) (A) (A) (A) (A) (A) (A)
       Virtual   (A) (A) (A) (A) (A) (A) (A) (A) (A) (A) (A) (A)
                 (A) (A) (A) (A) (A) (A) (A) (A) (A) (A) (A) (A)
                 (A) (A) (A) (A) (A) (A) (A) (A) (A) (A) (A) (A)
                 (A) (A) (A) (A) (A) (A) (A) (A) (A) (A) (A) (A)
                 (A) (A) (A) (A) (A) (A) (A) (A) (A) (A) (A) (A)
                 (A) (A) (A) (A) (A) (A) (A) (A) (A) (A) (A) (A)
                 (A) (A) (A) (A) (A) (A) (A) (A) (A) (A) (A) (A)
                 (A) (A) (A) (A) (A) (A) (A) (A) (A) (A) (A) (A)
                 (A) (A) (A) (A) (A) (A) (A) (A) (A) (A) (A) (A)
                 (A) (A) (A) (A) (A) (A) (A) (A) (A) (A) (A) (A)
                 (A) (A) (A) (A) (A) (A) (A) (A) (A) (A) (A) (A)
                 (A) (A) (A) (A) (A) (A) (A) (A) (A) (A) (A) (A)
                 (A) (A) (A) (A) (A) (A) (A) (A) (A) (A) (A) (A)
                 (A) (A) (A) (A) (A) (A) (A) (A) (A) (A) (A) (A)
                 (A) (A) (A) (A) (A) (A) (A) (A) (A) (A) (A) (A)
                 (A) (A) (A) (A) (A) (A) (A) (A) (A) (A) (A) (A)
                 (A) (A) (A) (A) (A) (A) (A) (A) (A) (A) (A) (A)
                 (A) (A) (A) (A) (A) (A) (A) (A) (A) (A) (A) (A)
                 (A) (A) (A) (A) (A) (A) (A) (A) (A) (A) (A) (A)
                 (A) (A) (A) (A) (A) (A) (A) (A) (A) (A) (A) (A)
                 (A) (A) (A) (A) (A) (A) (A) (A) (A) (A) (A) (A)
                 (A) (A) (A) (A) (A) (A) (A) (A) (A) (A) (A) (A)
                 (A) (A) (A) (A) (A) (A) (A) (A) (A) (A) (A) (A)
                 (A) (A) (A) (A) (A) (A) (A) (A) (A) (A) (A) (A)
                 (A) (A) (A) (A) (A) (A) (A) (A) (A) (A) (A) (A)
                 (A) (A) (A) (A) (A) (A) (A) (A) (A) (A) (A) (A)
                 (A) (A) (A) (A) (A) (A) (A) (A) (A) (A) (A) (A)
                 (A) (A) (A) (A) (A) (A) (A) (A) (A) (A) (A) (A)
                 (A) (A) (A) (A) (A) (A) (A) (A) (A) (A) (A) (A)
                 (A) (A) (A) (A) (A) (A) (A)
 The electronic state is 1-A.
 Alpha  occ. eigenvalues --  -10.25539 -10.25510 -10.24939 -10.24916 -10.24839
 Alpha  occ. eigenvalues --  -10.24813 -10.24574 -10.24566 -10.24555 -10.24538
 Alpha  occ. eigenvalues --  -10.24475 -10.24433 -10.22628 -10.22578 -10.21685
 Alpha  occ. eigenvalues --  -10.21642  -0.94923  -0.94196  -0.91497  -0.87171
 Alpha  occ. eigenvalues --   -0.82751  -0.82730  -0.82360  -0.79321  -0.71585
 Alpha  occ. eigenvalues --   -0.69050  -0.68410  -0.67434  -0.65545  -0.65256
 Alpha  occ. eigenvalues --   -0.59654  -0.58795  -0.55372  -0.54902  -0.53874
 Alpha  occ. eigenvalues --   -0.52914  -0.51377  -0.51293  -0.49694  -0.49097
 Alpha  occ. eigenvalues --   -0.48762  -0.47816  -0.45738  -0.44379  -0.44094
 Alpha  occ. eigenvalues --   -0.42954  -0.42365  -0.41251  -0.41114  -0.40462
 Alpha  occ. eigenvalues --   -0.39376  -0.37521  -0.36101  -0.30950  -0.30906
 Alpha  occ. eigenvalues --   -0.29927  -0.29515
 Alpha virt. eigenvalues --    0.02726   0.02970   0.03716   0.03813   0.08574
 Alpha virt. eigenvalues --    0.08665   0.09448   0.10245   0.10624   0.11650
 Alpha virt. eigenvalues --    0.12567   0.12876   0.13532   0.14582   0.14601
 Alpha virt. eigenvalues --    0.15291   0.15788   0.15998   0.16918   0.17824
 Alpha virt. eigenvalues --    0.18768   0.19478   0.19972   0.20328   0.20809
 Alpha virt. eigenvalues --    0.21933   0.22541   0.23025   0.23880   0.24400
 Alpha virt. eigenvalues --    0.25835   0.26180   0.26238   0.26651   0.27188
 Alpha virt. eigenvalues --    0.27772   0.27998   0.28510   0.28736   0.29470
 Alpha virt. eigenvalues --    0.30074   0.30598   0.31793   0.32043   0.32577
 Alpha virt. eigenvalues --    0.33122   0.33340   0.33773   0.34720   0.35174
 Alpha virt. eigenvalues --    0.36140   0.36540   0.37841   0.38670   0.38893
 Alpha virt. eigenvalues --    0.39679   0.40212   0.40712   0.40992   0.41309
 Alpha virt. eigenvalues --    0.42059   0.42739   0.43470   0.43773   0.44677
 Alpha virt. eigenvalues --    0.45245   0.45490   0.45923   0.46266   0.46918
 Alpha virt. eigenvalues --    0.47154   0.47595   0.47790   0.48952   0.49441
 Alpha virt. eigenvalues --    0.49901   0.50642   0.51242   0.51391   0.51870
 Alpha virt. eigenvalues --    0.51950   0.53156   0.53537   0.53805   0.54674
 Alpha virt. eigenvalues --    0.54739   0.55665   0.56011   0.56150   0.56710
 Alpha virt. eigenvalues --    0.57281   0.58134   0.58651   0.59400   0.60164
 Alpha virt. eigenvalues --    0.61427   0.62063   0.63442   0.63516   0.64508
 Alpha virt. eigenvalues --    0.65386   0.65938   0.66419   0.67632   0.70854
 Alpha virt. eigenvalues --    0.72255   0.72829   0.73459   0.74529   0.74966
 Alpha virt. eigenvalues --    0.74993   0.76110   0.76915   0.77328   0.78007
 Alpha virt. eigenvalues --    0.78744   0.80693   0.83069   0.84079   0.86434
 Alpha virt. eigenvalues --    0.87540   0.95986   0.96451   1.19179   1.21292
 Alpha virt. eigenvalues --    1.24562   1.27601   1.27800   1.29143   1.30062
 Alpha virt. eigenvalues --    1.30690   1.31291   1.31981   1.32120   1.32486
 Alpha virt. eigenvalues --    1.34093   1.34487   1.34840   1.35871   1.36257
 Alpha virt. eigenvalues --    1.36546   1.36767   1.36952   1.37074   1.37378
 Alpha virt. eigenvalues --    1.37760   1.38546   1.40153   1.42055   1.43902
 Alpha virt. eigenvalues --    1.44420   1.45568   1.46036   1.47055   1.47941
 Alpha virt. eigenvalues --    1.48140   1.48994   1.50212   1.50628   1.51375
 Alpha virt. eigenvalues --    1.51503   1.51674   1.51722   1.51983   1.52299
 Alpha virt. eigenvalues --    1.52725   1.53543   1.54310   1.54751   1.55409
 Alpha virt. eigenvalues --    1.56441   1.56550   1.57758   1.57816   1.57968
 Alpha virt. eigenvalues --    1.58369   1.59419   1.59763   1.60458   1.60762
 Alpha virt. eigenvalues --    1.61121   1.61703   1.61787   1.62942   1.63224
 Alpha virt. eigenvalues --    1.63686   1.66105   1.66734   1.67503   1.69096
 Alpha virt. eigenvalues --    1.70315   1.71105   1.72072   1.73387   1.73595
 Alpha virt. eigenvalues --    1.76710   1.77563   1.81760   1.82278   1.84224
 Alpha virt. eigenvalues --    1.84649   1.84868   1.85094   1.85887   1.86539
 Alpha virt. eigenvalues --    1.87097   1.87889   1.88353   1.89510   1.90303
 Alpha virt. eigenvalues --    1.91056   1.91284   1.93582   1.94438   1.94533
 Alpha virt. eigenvalues --    1.94740   1.95167   1.95275   1.96367   1.97984
 Alpha virt. eigenvalues --    1.98402   1.98914   1.99782   1.99989   2.00466
 Alpha virt. eigenvalues --    2.01195   2.04020   2.05003   2.06211   2.06954
 Alpha virt. eigenvalues --    2.07940   2.08648   2.10110   2.10295   2.11105
 Alpha virt. eigenvalues --    2.13167   2.14028   2.15744   2.20408   2.21126
 Alpha virt. eigenvalues --    2.23990   2.26037   2.26858   2.28146   2.30358
 Alpha virt. eigenvalues --    2.33039   2.34126   2.34947   2.37609   2.37949
 Alpha virt. eigenvalues --    2.38550   2.39071   2.40098   2.40359   2.41498
 Alpha virt. eigenvalues --    2.41608   2.43256   2.44754   2.45222   2.45989
 Alpha virt. eigenvalues --    2.47492   2.47915   2.48870   2.51732   2.52293
 Alpha virt. eigenvalues --    2.54086   2.54390   2.56015   2.56726   2.57083
 Alpha virt. eigenvalues --    2.57486   2.59727   2.60683   2.60850   2.61094
 Alpha virt. eigenvalues --    2.65183   2.67796   2.68303   2.69322   2.69677
 Alpha virt. eigenvalues --    2.71805   2.72516   2.72810   2.74420   2.75394
 Alpha virt. eigenvalues --    2.76137   2.76866   2.77901   2.80540   2.81451
 Alpha virt. eigenvalues --    2.81720   2.82838   2.83628   2.85734   2.86496
 Alpha virt. eigenvalues --    2.87643   2.88230   2.89004   2.92113   2.93459
 Alpha virt. eigenvalues --    2.96219   2.98997   3.03919   3.04369   3.07395
 Alpha virt. eigenvalues --    3.10597   3.11772   3.12635   3.13941   3.14340
 Alpha virt. eigenvalues --    3.16059   3.17582   3.20706   3.21021   3.21945
 Alpha virt. eigenvalues --    3.22390   3.24174   3.26230   3.26976   3.28064
 Alpha virt. eigenvalues --    3.28759   3.30801   3.39701   3.40172   3.40802
 Alpha virt. eigenvalues --    3.42506   3.43675   3.47595   3.47933   3.53336
 Alpha virt. eigenvalues --    3.54084   3.58109   3.59620   3.59962   3.61906
 Alpha virt. eigenvalues --    3.63176   3.75862   3.87931   3.88557  21.37778
 Alpha virt. eigenvalues --   21.40321  21.88585  21.92174  21.93315  21.93852
 Alpha virt. eigenvalues --   22.09527  22.14115  22.16163  22.16738  22.20503
 Alpha virt. eigenvalues --   22.27611  22.29253  22.29769  22.36449  22.47307
          Condensed to atoms (all electrons):
               1          2          3          4          5          6
     1  C    4.959325   0.505439  -0.052204  -0.043344  -0.059757   0.500777
     2  C    0.505439   4.971030   0.460751  -0.057331  -0.076555  -0.038236
     3  C   -0.052204   0.460751   5.049399   0.488120  -0.040654  -0.081222
     4  C   -0.043344  -0.057331   0.488120   5.284469   0.469648  -0.057535
     5  C   -0.059757  -0.076555  -0.040654   0.469648   5.085370   0.458523
     6  C    0.500777  -0.038236  -0.081222  -0.057535   0.458523   4.974380
     7  H    0.409339  -0.039561   0.011086  -0.001993   0.011656  -0.041690
     8  H   -0.040543   0.406478  -0.037875   0.011604   0.000099   0.008339
     9  H    0.008468  -0.034102   0.406093  -0.040634   0.011032  -0.001618
    10  H    0.007725  -0.001604   0.010551  -0.032877   0.402062  -0.034626
    11  H   -0.038524   0.007752   0.000336   0.010157  -0.036080   0.404644
    12  C   -0.001998   0.019768  -0.078745   0.151125  -0.064406   0.017313
    13  H    0.000395  -0.000857   0.003201  -0.035479  -0.000430  -0.000904
    14  H   -0.000147   0.001223  -0.006386  -0.070972   0.007828  -0.000365
    15  C    0.001595  -0.004116   0.020500  -0.084919  -0.003350  -0.005120
    16  H   -0.000048   0.000163  -0.002447   0.004914   0.002934   0.000185
    17  H    0.000494  -0.000893   0.009692  -0.017417   0.000225  -0.002216
    18  C   -0.000126   0.000261  -0.002144   0.026091   0.001323   0.000270
    19  H    0.000017  -0.000144   0.001931  -0.001412  -0.000375  -0.000029
    20  H    0.000005   0.000044  -0.000625  -0.002460   0.000451  -0.000041
    21  C   -0.000006   0.000007   0.000454   0.006192  -0.000203   0.000004
    22  H   -0.000000   0.000003  -0.000084   0.000346   0.000054  -0.000000
    23  H    0.000001  -0.000005   0.000084  -0.000951   0.000012   0.000001
    24  C    0.000002  -0.000003   0.000034  -0.001562  -0.000093   0.000001
    25  C    0.000000  -0.000000   0.000003  -0.000064  -0.000001  -0.000000
    26  C   -0.000001  -0.000001  -0.000008   0.000486  -0.000053   0.000003
    27  C   -0.000000   0.000000  -0.000000  -0.000000   0.000000  -0.000000
    28  H    0.000000   0.000000   0.000000  -0.000001  -0.000000  -0.000000
    29  C    0.000000  -0.000000   0.000001  -0.000010  -0.000001  -0.000000
    30  H    0.000000  -0.000002  -0.000000   0.000104   0.000046  -0.000004
    31  C   -0.000000   0.000000  -0.000000   0.000001   0.000000   0.000000
    32  H   -0.000000   0.000000  -0.000000  -0.000000  -0.000000  -0.000000
    33  H    0.000000   0.000000   0.000000  -0.000001  -0.000000  -0.000000
    34  H    0.000000   0.000000  -0.000000  -0.000000   0.000000   0.000000
               7          8          9         10         11         12
     1  C    0.409339  -0.040543   0.008468   0.007725  -0.038524  -0.001998
     2  C   -0.039561   0.406478  -0.034102  -0.001604   0.007752   0.019768
     3  C    0.011086  -0.037875   0.406093   0.010551   0.000336  -0.078745
     4  C   -0.001993   0.011604  -0.040634  -0.032877   0.010157   0.151125
     5  C    0.011656   0.000099   0.011032   0.402062  -0.036080  -0.064406
     6  C   -0.041690   0.008339  -0.001618  -0.034626   0.404644   0.017313
     7  H    0.522853  -0.003754  -0.000220  -0.000189  -0.003782  -0.000056
     8  H   -0.003754   0.525989  -0.003170   0.000022  -0.000240  -0.000658
     9  H   -0.000220  -0.003170   0.527909  -0.000164   0.000029  -0.011350
    10  H   -0.000189   0.000022  -0.000164   0.508550  -0.002865  -0.002928
    11  H   -0.003782  -0.000240   0.000029  -0.002865   0.523795  -0.000560
    12  C   -0.000056  -0.000658  -0.011350  -0.002928  -0.000560   5.474492
    13  H    0.000000   0.000012   0.000543   0.000779  -0.000007   0.444415
    14  H    0.000002   0.000007   0.000969  -0.000156   0.000009   0.485288
    15  C    0.000013   0.000011   0.000231   0.000152   0.000035   0.071569
    16  H   -0.000000  -0.000001  -0.000090  -0.000989  -0.000009  -0.047365
    17  H    0.000000   0.000008   0.000505   0.001433   0.000057  -0.081290
    18  C   -0.000000  -0.000002  -0.000427   0.000516   0.000006  -0.051005
    19  H   -0.000000  -0.000004   0.000532  -0.000009  -0.000000  -0.019814
    20  H   -0.000000   0.000000  -0.000015  -0.000011  -0.000000   0.013927
    21  C    0.000000   0.000000   0.000032   0.000045  -0.000000  -0.019179
    22  H   -0.000000   0.000000  -0.000009  -0.000001  -0.000000  -0.001901
    23  H    0.000000  -0.000000   0.000006   0.000033   0.000000   0.000463
    24  C   -0.000000  -0.000000  -0.000000  -0.000011  -0.000000   0.007229
    25  C    0.000000   0.000000   0.000000  -0.000000  -0.000000   0.000443
    26  C    0.000000  -0.000000  -0.000001   0.000000  -0.000000  -0.001534
    27  C   -0.000000  -0.000000  -0.000000  -0.000000  -0.000000  -0.000006
    28  H   -0.000000   0.000000   0.000000   0.000000   0.000000   0.000015
    29  C   -0.000000   0.000000   0.000000   0.000000   0.000000   0.000011
    30  H   -0.000000   0.000000   0.000000   0.000012   0.000000   0.000354
    31  C    0.000000   0.000000  -0.000000   0.000000   0.000000  -0.000005
    32  H   -0.000000   0.000000   0.000000   0.000000   0.000000   0.000000
    33  H   -0.000000   0.000000   0.000000  -0.000000   0.000000   0.000002
    34  H    0.000000  -0.000000  -0.000000  -0.000000  -0.000000  -0.000000
              13         14         15         16         17         18
     1  C    0.000395  -0.000147   0.001595  -0.000048   0.000494  -0.000126
     2  C   -0.000857   0.001223  -0.004116   0.000163  -0.000893   0.000261
     3  C    0.003201  -0.006386   0.020500  -0.002447   0.009692  -0.002144
     4  C   -0.035479  -0.070972  -0.084919   0.004914  -0.017417   0.026091
     5  C   -0.000430   0.007828  -0.003350   0.002934   0.000225   0.001323
     6  C   -0.000904  -0.000365  -0.005120   0.000185  -0.002216   0.000270
     7  H    0.000000   0.000002   0.000013  -0.000000   0.000000  -0.000000
     8  H    0.000012   0.000007   0.000011  -0.000001   0.000008  -0.000002
     9  H    0.000543   0.000969   0.000231  -0.000090   0.000505  -0.000427
    10  H    0.000779  -0.000156   0.000152  -0.000989   0.001433   0.000516
    11  H   -0.000007   0.000009   0.000035  -0.000009   0.000057   0.000006
    12  C    0.444415   0.485288   0.071569  -0.047365  -0.081290  -0.051005
    13  H    0.520605  -0.021595  -0.079760  -0.019102   0.007919   0.009045
    14  H   -0.021595   0.550721  -0.076007   0.008609   0.005382  -0.021486
    15  C   -0.079760  -0.076007   5.493468   0.433098   0.456015   0.132962
    16  H   -0.019102   0.008609   0.433098   0.570211  -0.028843  -0.048047
    17  H    0.007919   0.005382   0.456015  -0.028843   0.520538  -0.043468
    18  C    0.009045  -0.021486   0.132962  -0.048047  -0.043468   5.572449
    19  H    0.002366   0.002136  -0.040913   0.002887   0.005963   0.424315
    20  H   -0.000812   0.002713  -0.059398   0.005331  -0.008115   0.466032
    21  C    0.000863  -0.002692  -0.024713  -0.007123   0.010184   0.057457
    22  H   -0.000583   0.000577   0.012549   0.003552  -0.001014  -0.057858
    23  H    0.000302   0.000786  -0.020987  -0.000751   0.002820  -0.095416
    24  C    0.000168  -0.000093   0.004948  -0.005408   0.000503  -0.070588
    25  C    0.000012   0.000003  -0.003528  -0.000685   0.000262   0.011928
    26  C   -0.000039  -0.000188   0.001034   0.002451  -0.000229   0.010773
    27  C   -0.000000   0.000000   0.000554   0.000020  -0.000038  -0.004093
    28  H    0.000000  -0.000002  -0.000241  -0.000022   0.000003   0.000677
    29  C    0.000001  -0.000003   0.001219  -0.000263   0.000014  -0.006448
    30  H   -0.000016  -0.000021  -0.008748  -0.000522   0.001484   0.013775
    31  C    0.000000   0.000000  -0.000258   0.000010   0.000008   0.001465
    32  H   -0.000000   0.000000  -0.000001  -0.000000  -0.000000   0.000025
    33  H    0.000000   0.000000   0.000014  -0.000004   0.000002   0.000010
    34  H   -0.000000   0.000000   0.000002   0.000000  -0.000000  -0.000002
              19         20         21         22         23         24
     1  C    0.000017   0.000005  -0.000006  -0.000000   0.000001   0.000002
     2  C   -0.000144   0.000044   0.000007   0.000003  -0.000005  -0.000003
     3  C    0.001931  -0.000625   0.000454  -0.000084   0.000084   0.000034
     4  C   -0.001412  -0.002460   0.006192   0.000346  -0.000951  -0.001562
     5  C   -0.000375   0.000451  -0.000203   0.000054   0.000012  -0.000093
     6  C   -0.000029  -0.000041   0.000004  -0.000000   0.000001   0.000001
     7  H   -0.000000  -0.000000   0.000000  -0.000000   0.000000  -0.000000
     8  H   -0.000004   0.000000   0.000000   0.000000  -0.000000  -0.000000
     9  H    0.000532  -0.000015   0.000032  -0.000009   0.000006  -0.000000
    10  H   -0.000009  -0.000011   0.000045  -0.000001   0.000033  -0.000011
    11  H   -0.000000  -0.000000  -0.000000  -0.000000   0.000000  -0.000000
    12  C   -0.019814   0.013927  -0.019179  -0.001901   0.000463   0.007229
    13  H    0.002366  -0.000812   0.000863  -0.000583   0.000302   0.000168
    14  H    0.002136   0.002713  -0.002692   0.000577   0.000786  -0.000093
    15  C   -0.040913  -0.059398  -0.024713   0.012549  -0.020987   0.004948
    16  H    0.002887   0.005331  -0.007123   0.003552  -0.000751  -0.005408
    17  H    0.005963  -0.008115   0.010184  -0.001014   0.002820   0.000503
    18  C    0.424315   0.466032   0.057457  -0.057858  -0.095416  -0.070588
    19  H    0.556324  -0.016435  -0.050576  -0.021960   0.008870   0.013046
    20  H   -0.016435   0.508661  -0.089305   0.006717   0.007625  -0.012641
    21  C   -0.050576  -0.089305   5.481397   0.457451   0.458366   0.140285
    22  H   -0.021960   0.006717   0.457451   0.543015  -0.022209  -0.062486
    23  H    0.008870   0.007625   0.458366  -0.022209   0.541409  -0.047297
    24  C    0.013046  -0.012641   0.140285  -0.062486  -0.047297   5.294788
    25  C    0.002054   0.004983  -0.082059  -0.007099   0.002875   0.522251
    26  C   -0.000702  -0.005185  -0.042069   0.010669  -0.001291   0.418414
    27  C   -0.000202  -0.000343   0.022223   0.002216  -0.001301  -0.058428
    28  H    0.000090   0.000284  -0.012307   0.002239   0.000435  -0.039392
    29  C    0.000105  -0.002407   0.014256  -0.000730  -0.001003  -0.049351
    30  H   -0.000008   0.001605  -0.001943  -0.000122   0.000741  -0.043236
    31  C   -0.000028   0.000427  -0.001170  -0.000029   0.000450  -0.043488
    32  H   -0.000003   0.000013  -0.000591   0.000009   0.000013   0.011707
    33  H    0.000001   0.000015  -0.000620   0.000006  -0.000009   0.009824
    34  H   -0.000000   0.000001  -0.000039  -0.000000   0.000001  -0.001902
              25         26         27         28         29         30
     1  C    0.000000  -0.000001  -0.000000   0.000000   0.000000   0.000000
     2  C   -0.000000  -0.000001   0.000000   0.000000  -0.000000  -0.000002
     3  C    0.000003  -0.000008  -0.000000   0.000000   0.000001  -0.000000
     4  C   -0.000064   0.000486  -0.000000  -0.000001  -0.000010   0.000104
     5  C   -0.000001  -0.000053   0.000000  -0.000000  -0.000001   0.000046
     6  C   -0.000000   0.000003  -0.000000  -0.000000  -0.000000  -0.000004
     7  H    0.000000   0.000000  -0.000000  -0.000000  -0.000000  -0.000000
     8  H    0.000000  -0.000000  -0.000000   0.000000   0.000000   0.000000
     9  H    0.000000  -0.000001  -0.000000   0.000000   0.000000   0.000000
    10  H   -0.000000   0.000000  -0.000000   0.000000   0.000000   0.000012
    11  H   -0.000000  -0.000000  -0.000000   0.000000   0.000000   0.000000
    12  C    0.000443  -0.001534  -0.000006   0.000015   0.000011   0.000354
    13  H    0.000012  -0.000039  -0.000000   0.000000   0.000001  -0.000016
    14  H    0.000003  -0.000188   0.000000  -0.000002  -0.000003  -0.000021
    15  C   -0.003528   0.001034   0.000554  -0.000241   0.001219  -0.008748
    16  H   -0.000685   0.002451   0.000020  -0.000022  -0.000263  -0.000522
    17  H    0.000262  -0.000229  -0.000038   0.000003   0.000014   0.001484
    18  C    0.011928   0.010773  -0.004093   0.000677  -0.006448   0.013775
    19  H    0.002054  -0.000702  -0.000202   0.000090   0.000105  -0.000008
    20  H    0.004983  -0.005185  -0.000343   0.000284  -0.002407   0.001605
    21  C   -0.082059  -0.042069   0.022223  -0.012307   0.014256  -0.001943
    22  H   -0.007099   0.010669   0.002216   0.002239  -0.000730  -0.000122
    23  H    0.002875  -0.001291  -0.001301   0.000435  -0.001003   0.000741
    24  C    0.522251   0.418414  -0.058428  -0.039392  -0.049351  -0.043236
    25  C    5.056704  -0.062111   0.456528   0.405088  -0.072231   0.009654
    26  C   -0.062111   5.138536  -0.079715   0.013458   0.438966   0.405932
    27  C    0.456528  -0.079715   4.980096  -0.036696  -0.035175  -0.001972
    28  H    0.405088   0.013458  -0.036696   0.528337  -0.002157  -0.000094
    29  C   -0.072231   0.438966  -0.035175  -0.002157   4.993799  -0.038775
    30  H    0.009654   0.405932  -0.001972  -0.000094  -0.038775   0.510570
    31  C   -0.061149  -0.050480   0.506761   0.008761   0.489941   0.008925
    32  H   -0.038553   0.000024   0.406767  -0.003292   0.008341   0.000022
    33  H    0.000868  -0.034438   0.007350   0.000025   0.403992  -0.003100
    34  H    0.011257   0.011185  -0.040648  -0.000217  -0.040358  -0.000221
              31         32         33         34
[...]

 Energy =   -843.1596 cm^-1: |0> -> |29^1>
   -> Intensity =  1.229     (DipStr = 0.1179E-02)

 Energy =   -841.8518 cm^-1: |0> -> |28^1>
   -> Intensity = 0.9685     (DipStr = 0.9289E-03)

 Energy =      0.0000 cm^-1: |0> -> |0>
   -> Intensity =  11.99     (DipStr = 0.1016E-01)

     ==================================================
                       Final Spectrum
     ==================================================

 Band broadening simulated by mean of Gaussian functions with
 Half-Widths at Half-Maximum of  400.00 cm^(-1)
 
 Legend:
 -------
 1st col.: Energy (in cm^-1)
 2nd col.: Intensity at T=0K
 Intensity: Emitted intensity (in microJ.mol^-1)
 -----------------------------
    20019.7930    0.166843D-02
    20039.7930    0.174996D-02
    20059.7930    0.183530D-02
    20079.7930    0.192462D-02
    20099.7930    0.201798D-02
    20119.7930    0.211553D-02
    20139.7930    0.221738D-02
    20159.7930    0.232364D-02
    20179.7930    0.243442D-02
    20199.7930    0.254982D-02
    20219.7930    0.266994D-02
    20239.7930    0.279492D-02
    20259.7930    0.292490D-02
    20279.7930    0.305994D-02
    20299.7930    0.320016D-02
    20319.7930    0.334568D-02
    20339.7930    0.349661D-02
    20359.7930    0.365313D-02
    20379.7930    0.381532D-02
    20399.7930    0.398330D-02
    20419.7930    0.415727D-02
    20439.7930    0.433742D-02
    20459.7930    0.452392D-02
    20479.7930    0.471703D-02
    20499.7930    0.491691D-02
    20519.7930    0.512381D-02
    20539.7930    0.533803D-02
    20559.7930    0.555985D-02
    20579.7930    0.578964D-02
    20599.7930    0.602771D-02
    20619.7930    0.627443D-02
    20639.7930    0.653022D-02
    20659.7930    0.679555D-02
    20679.7930    0.707098D-02
    20699.7930    0.735694D-02
    20719.7930    0.765399D-02
    20739.7930    0.796269D-02
    20759.7930    0.828382D-02
    20779.7930    0.861791D-02
    20799.7930    0.896571D-02
    20819.7930    0.932776D-02
    20839.7930    0.970487D-02
    20859.7930    0.100978D-01
    20879.7930    0.105074D-01
    20899.7930    0.109344D-01
    20919.7930    0.113797D-01
    20939.7930    0.118439D-01
    20959.7930    0.123280D-01
    20979.7930    0.128329D-01
    20999.7930    0.133591D-01
    21019.7930    0.139076D-01
    21039.7930    0.144788D-01
    21059.7930    0.150736D-01
    21079.7930    0.156929D-01
    21099.7930    0.163370D-01
    21119.7930    0.170069D-01
    21139.7930    0.177028D-01
    21159.7930    0.184255D-01
    21179.7930    0.191754D-01
    21199.7930    0.199531D-01
    21219.7930    0.207583D-01
    21239.7930    0.215914D-01
    21259.7930    0.224529D-01
    21279.7930    0.233425D-01
    21299.7930    0.242614D-01
    21319.7930    0.252085D-01
    21339.7930    0.261842D-01
    21359.7930    0.271887D-01
    21379.7930    0.282219D-01
    21399.7930    0.292835D-01
    21419.7930    0.303736D-01
    21439.7930    0.314915D-01
    21459.7930    0.326377D-01
    21479.7930    0.338123D-01
    21499.7930    0.350147D-01
    21519.7930    0.362460D-01
    21539.7930    0.375055D-01
    21559.7930    0.387937D-01
    21579.7930    0.401110D-01
    21599.7930    0.414584D-01
    21619.7930    0.428359D-01
    21639.7930    0.442444D-01
    21659.7930    0.456850D-01
    21679.7930    0.471585D-01
    21699.7930    0.486669D-01
    21719.7930    0.502114D-01
    21739.7930    0.517942D-01
    21759.7930    0.534168D-01
    21779.7930    0.550816D-01
    21799.7930    0.567917D-01
    21819.7930    0.585491D-01
    21839.7930    0.603569D-01
    21859.7930    0.622181D-01
    21879.7930    0.641354D-01
    21899.7930    0.661124D-01
    21919.7930    0.681532D-01
    21939.7930    0.702616D-01
    21959.7930    0.724405D-01
    21979.7930    0.746943D-01
    21999.7930    0.770268D-01
    22019.7930    0.794435D-01
    22039.7930    0.819464D-01
    22059.7930    0.845388D-01
    22079.7930    0.872246D-01
    22099.7930    0.900068D-01
    22119.7930    0.928897D-01
    22139.7930    0.958764D-01
    22159.7930    0.989685D-01
    22179.7930    0.102169D+00
    22199.7930    0.105482D+00
    22219.7930    0.108907D+00
    22239.7930    0.112448D+00
    22259.7930    0.116104D+00
    22279.7930    0.119872D+00
    22299.7930    0.123756D+00
    22319.7930    0.127756D+00
    22339.7930    0.131869D+00
    22359.7930    0.136097D+00
    22379.7930    0.140436D+00
    22399.7930    0.144886D+00
    22419.7930    0.149444D+00
    22439.7930    0.154109D+00
    22459.7930    0.158879D+00
    22479.7930    0.163746D+00
    22499.7930    0.168710D+00
    22519.7930    0.173768D+00
    22539.7930    0.178917D+00
    22559.7930    0.184157D+00
    22579.7930    0.189483D+00
    22599.7930    0.194895D+00
    22619.7930    0.200389D+00
    22639.7930    0.205970D+00
    22659.7930    0.211631D+00
    22679.7930    0.217372D+00
    22699.7930    0.223197D+00
    22719.7930    0.229106D+00
    22739.7930    0.235103D+00
    22759.7930    0.241191D+00
    22779.7930    0.247377D+00
    22799.7930    0.253664D+00
    22819.7930    0.260061D+00
    22839.7930    0.266574D+00
    22859.7930    0.273215D+00
    22879.7930    0.279991D+00
    22899.7930    0.286915D+00
    22919.7930    0.293995D+00
    22939.7930    0.301245D+00
    22959.7930    0.308681D+00
    22979.7930    0.316317D+00
    22999.7930    0.324162D+00
    23019.7930    0.332236D+00
    23039.7930    0.340555D+00
    23059.7930    0.349133D+00
    23079.7930    0.357991D+00
    23099.7930    0.367128D+00
    23119.7930    0.376565D+00
    23139.7930    0.386314D+00
    23159.7930    0.396387D+00
    23179.7930    0.406799D+00
    23199.7930    0.417554D+00
    23219.7930    0.428663D+00
    23239.7930    0.440132D+00
    23259.7930    0.451977D+00
    23279.7930    0.464184D+00
    23299.7930    0.476772D+00
    23319.7930    0.489705D+00
    23339.7930    0.503001D+00
    23359.7930    0.516651D+00
    23379.7930    0.530643D+00
    23399.7930    0.544976D+00
    23419.7930    0.559625D+00
    23439.7930    0.574589D+00
    23459.7930    0.589846D+00
    23479.7930    0.605404D+00
    23499.7930    0.621202D+00
    23519.7930    0.637222D+00
    23539.7930    0.653458D+00
    23559.7930    0.669883D+00
    23579.7930    0.686482D+00
    23599.7930    0.703225D+00
    23619.7930    0.720104D+00
    23639.7930    0.737097D+00
    23659.7930    0.754200D+00
    23679.7930    0.771381D+00
    23699.7930    0.788647D+00
    23719.7930    0.805955D+00
    23739.7930    0.823327D+00
    23759.7930    0.840754D+00
    23779.7930    0.858234D+00
    23799.7930    0.875785D+00
    23819.7930    0.893424D+00
    23839.7930    0.911149D+00
    23859.7930    0.928998D+00
    23879.7930    0.946992D+00
    23899.7930    0.965175D+00
    23919.7930    0.983563D+00
    23939.7930    0.100221D+01
    23959.7930    0.102116D+01
    23979.7930    0.104046D+01
    23999.7930    0.106016D+01
    24019.7930    0.108034D+01
    24039.7930    0.110103D+01
    24059.7930    0.112230D+01
    24079.7930    0.114423D+01
    24099.7930    0.116687D+01
    24119.7930    0.119031D+01
    24139.7930    0.121457D+01
    24159.7930    0.123970D+01
    24179.7930    0.126579D+01
    24199.7930    0.129287D+01
    24219.7930    0.132099D+01
    24239.7930    0.135019D+01
    24259.7930    0.138051D+01
    24279.7930    0.141196D+01
    24299.7930    0.144461D+01
    24319.7930    0.147846D+01
    24339.7930    0.151343D+01
    24359.7930    0.154951D+01
    24379.7930    0.158672D+01
    24399.7930    0.162500D+01
    24419.7930    0.166431D+01
    24439.7930    0.170460D+01
    24459.7930    0.174579D+01
    24479.7930    0.178783D+01
    24499.7930    0.183067D+01
    24519.7930    0.187419D+01
    24539.7930    0.191828D+01
    24559.7930    0.196272D+01
    24579.7930    0.200750D+01
    24599.7930    0.205249D+01
    24619.7930    0.209756D+01
    24639.7930    0.214260D+01
    24659.7930    0.218749D+01
    24679.7930    0.223213D+01
    24699.7930    0.227648D+01
    24719.7930    0.232033D+01
    24739.7930    0.236380D+01
    24759.7930    0.240654D+01
    24779.7930    0.244861D+01
    24799.7930    0.249000D+01
    24819.7930    0.253065D+01
    24839.7930    0.257057D+01
    24859.7930    0.260980D+01
    24879.7930    0.264835D+01
    24899.7930    0.268627D+01
    24919.7930    0.272374D+01
    24939.7930    0.276074D+01
    24959.7930    0.279746D+01
    24979.7930    0.283404D+01
    24999.7930    0.287066D+01
    25019.7930    0.290751D+01
    25039.7930    0.294479D+01
    25059.7930    0.298278D+01
    25079.7930    0.302164D+01
    25099.7930    0.306167D+01
    25119.7930    0.310312D+01
    25139.7930    0.314625D+01
    25159.7930    0.319134D+01
    25179.7930    0.323867D+01
    25199.7930    0.328842D+01
    25219.7930    0.334087D+01
    25239.7930    0.339622D+01
    25259.7930    0.345472D+01
    25279.7930    0.351651D+01
    25299.7930    0.358175D+01
    25319.7930    0.365056D+01
    25339.7930    0.372304D+01
    25359.7930    0.379952D+01
    25379.7930    0.387947D+01
    25399.7930    0.396306D+01
    25419.7930    0.405021D+01
    25439.7930    0.414079D+01
    25459.7930    0.423462D+01
    25479.7930    0.433144D+01
    25499.7930    0.443098D+01
    25519.7930    0.453289D+01
    25539.7930    0.463713D+01
    25559.7930    0.474271D+01
    25579.7930    0.485012D+01
    25599.7930    0.495765D+01
    25619.7930    0.506534D+01
    25639.7930    0.517267D+01
    25659.7930    0.527908D+01
    25679.7930    0.538402D+01
    25699.7930    0.548693D+01
    25719.7930    0.558727D+01
    25739.7930    0.568450D+01
    25759.7930    0.577857D+01
    25779.7930    0.586824D+01
    25799.7930    0.595344D+01
    25819.7930    0.603380D+01
    25839.7930    0.610909D+01
    25859.7930    0.617892D+01
    25879.7930    0.624321D+01
    25899.7930    0.630187D+01
    25919.7930    0.635491D+01
    25939.7930    0.640241D+01
    25959.7930    0.644457D+01
    25979.7930    0.648167D+01
    25999.7930    0.651411D+01
    26019.7930    0.654236D+01
    26039.7930    0.656693D+01
    26059.7930    0.658853D+01
    26079.7930    0.660786D+01
    26099.7930    0.662577D+01
    26119.7930    0.664311D+01
    26139.7930    0.666086D+01
    26159.7930    0.667998D+01
    26179.7930    0.670148D+01
    26199.7930    0.672640D+01
    26219.7930    0.675578D+01
    26239.7930    0.679065D+01
    26259.7930    0.683202D+01
    26279.7930    0.688083D+01
    26299.7930    0.693797D+01
    26319.7930    0.700433D+01
    26339.7930    0.708060D+01
    26359.7930    0.716741D+01
    26379.7930    0.726525D+01
    26399.7930    0.737450D+01
    26419.7930    0.749540D+01
    26439.7930    0.762791D+01
    26459.7930    0.777197D+01
    26479.7930    0.792728D+01
    26499.7930    0.809339D+01
    26519.7930    0.826965D+01
    26539.7930    0.845523D+01
    26559.7930    0.864912D+01
    26579.7930    0.885012D+01
    26599.7930    0.905689D+01
    26619.7930    0.927041D+01
    26639.7930    0.948477D+01
    26659.7930    0.970022D+01
    26679.7930    0.991491D+01
    26699.7930    0.101270D+02
    26719.7930    0.103345D+02
    26739.7930    0.105354D+02
    26759.7930    0.107279D+02
    26779.7930    0.109100D+02
    26799.7930    0.110799D+02
    26819.7930    0.112357D+02
    26839.7930    0.113759D+02
    26859.7930    0.114988D+02
    26879.7930    0.116032D+02
    26899.7930    0.116880D+02
    26919.7930    0.117521D+02
    26939.7930    0.117950D+02
    26959.7930    0.118161D+02
    26979.7930    0.118153D+02
    26999.7930    0.117928D+02
    27019.7930    0.117487D+02
    27039.7930    0.116840D+02
    27059.7930    0.115994D+02
    27079.7930    0.114962D+02
    27099.7930    0.113759D+02
    27119.7930    0.112402D+02
    27139.7930    0.110911D+02
    27159.7930    0.109309D+02
    27179.7930    0.107619D+02
    27199.7930    0.105865D+02
    27219.7930    0.104076D+02
    27239.7930    0.102278D+02
    27259.7930    0.100500D+02
    27279.7930    0.987691D+01
    27299.7930    0.971146D+01
    27319.7930    0.955635D+01
    27339.7930    0.941432D+01
    27359.7930    0.928788D+01
    27379.7930    0.917954D+01
    27399.7930    0.909125D+01
    27419.7930    0.902496D+01
    27439.7930    0.898228D+01
    27459.7930    0.896449D+01
    27479.7930    0.897253D+01
    27499.7930    0.900699D+01
    27519.7930    0.906802D+01
    27539.7930    0.915556D+01
    27559.7930    0.926881D+01
    27579.7930    0.940706D+01
    27599.7930    0.956875D+01
    27619.7930    0.975206D+01
    27639.7930    0.995484D+01
    27659.7930    0.101746D+02
    27679.7930    0.104083D+02
    27699.7930    0.106531D+02
    27719.7930    0.109054D+02
    27739.7930    0.111617D+02
    27759.7930    0.114182D+02
    27779.7930    0.116712D+02
    27799.7930    0.119166D+02
    27819.7930    0.121508D+02
    27839.7930    0.123697D+02
    27859.7930    0.125698D+02
    27879.7930    0.127476D+02
    27899.7930    0.128998D+02
    27919.7930    0.130235D+02
    27939.7930    0.131160D+02
    27959.7930    0.131751D+02
    27979.7930    0.131989D+02
    27999.7930    0.131860D+02
    28019.7930    0.131355D+02
    28039.7930    0.130469D+02
    28059.7930    0.129202D+02
    28079.7930    0.127557D+02
    28099.7930    0.125543D+02
    28119.7930    0.123174D+02
    28139.7930    0.120466D+02
    28159.7930    0.117440D+02
    28179.7930    0.114117D+02
    28199.7930    0.110531D+02
    28219.7930    0.106706D+02
    28239.7930    0.102674D+02
    28259.7930    0.984675D+01
    28279.7930    0.941186D+01
    28299.7930    0.896612D+01
    28319.7930    0.851284D+01
    28339.7930    0.805531D+01
    28359.7930    0.759632D+01
    28379.7930    0.713964D+01
    28399.7930    0.668707D+01
    28419.7930    0.624262D+01
    28439.7930    0.580789D+01
    28459.7930    0.538503D+01
    28479.7930    0.497593D+01
    28499.7930    0.458221D+01
    28519.7930    0.420523D+01
    28539.7930    0.384607D+01
    28559.7930    0.350555D+01
    28579.7930    0.318370D+01
    28599.7930    0.288204D+01
    28619.7930    0.260001D+01
    28639.7930    0.233752D+01
    28659.7930    0.209426D+01
    28679.7930    0.186993D+01
    28699.7930    0.166388D+01
    28719.7930    0.147545D+01
    28739.7930    0.130385D+01
    28759.7930    0.114825D+01
    28779.7930    0.100774D+01
    28799.7930    0.881382D+00
    28819.7930    0.768180D+00
    28839.7930    0.667216D+00
    28859.7930    0.577548D+00
    28879.7930    0.498202D+00
    28899.7930    0.428280D+00
    28919.7930    0.366906D+00
    28939.7930    0.313243D+00
    28959.7930    0.266507D+00
    28979.7930    0.225963D+00
    28999.7930    0.190924D+00
    29019.7930    0.160753D+00
 -----------------------------

 Leave Link  718 at Mon Mar  4 15:13:25 2024, MaxMem= 14763950080 cpu:             649.1 elap:              20.5
 (Enter /apps/gaussian/g16-c01-avx2/g16/l9999.exe)

 ----------------------------------------------------------------------

 Electric dipole moment (input orientation):
 (Debye = 10**-18 statcoulomb cm , SI units = C m)
                  (au)            (Debye)         (10**-30 SI)
   Tot        0.000000D+00      0.000000D+00      0.000000D+00
   x          0.000000D+00      0.000000D+00      0.000000D+00
   y          0.000000D+00      0.000000D+00      0.000000D+00
   z          0.000000D+00      0.000000D+00      0.000000D+00

 Dipole polarizability, Alpha (input orientation).
 (esu units = cm**3 , SI units = C**2 m**2 J**-1)
 Alpha(0;0):
               (au)            (10**-24 esu)      (10**-40 SI)
   iso        0.196367D+03      0.290986D+02      0.323765D+02
   aniso      0.121702D+03      0.180344D+02      0.200660D+02
   xx         0.172087D+03      0.255006D+02      0.283732D+02
   yx         0.518030D+02      0.767641D+01      0.854116D+01
   yy         0.234587D+03      0.347623D+02      0.386782D+02
   zx        -0.312806D+02     -0.463530D+01     -0.515747D+01
   zy         0.123612D+02      0.183174D+01      0.203809D+01
   zz         0.182427D+03      0.270329D+02      0.300781D+02

 ----------------------------------------------------------------------

 Dipole orientation:
     6         -6.25418777         -2.14392307          0.46383155
     6         -4.59588508         -2.09387108          2.49106266
     6         -3.03406739         -4.14285632          2.96300101
     6         -3.09713218         -6.27575070          1.42729872
     6         -4.76728548         -6.29868462         -0.60286299
     6         -6.33378011         -4.25548345         -1.08439594
     1         -7.47146197         -0.54351761          0.08795060
     1         -4.51169146         -0.44924374          3.70572227
     1         -1.73507056         -4.08342523          4.54611730
     1         -4.83412267         -7.93806279         -1.82970889
     1         -7.61504593         -4.30926900         -2.67899699
     6         -1.45595243         -8.53004649          1.99250953
     1         -0.95665412         -9.47919947          0.22747575
     1          0.31575515         -7.89675892          2.84429539
     6         -2.72761227        -10.43248166          3.76129106
     1         -4.50540168        -11.06187082          2.91370075
     1         -3.23507852         -9.48216601          5.52607317
     6         -1.06741679        -12.71204745          4.33241777
     1         -0.55990913        -13.66232189          2.56762267
     1          0.71035513        -12.08270892          5.18008362
     6         -2.33916394        -14.61450236          6.10108234
     1         -4.11085257        -15.24772556          5.24920410
     1         -2.83851126        -13.66538183          7.86612124
     6         -0.69804296        -16.86885092          6.66626446
     6         -0.76112277        -19.00168942          5.13049282
     6          0.97203646        -16.84604407          8.69649542
     6          0.80062595        -21.05074331          5.60240597
     1         -2.06006970        -19.06103999          3.54733219
     6          2.53845034        -18.88930416          9.17800324
     1          1.03885646        -15.20671690          9.92341050
     6          2.45885435        -21.00081193          7.62968924
     1          0.71641328        -22.69532154          4.38768051
     1          3.81966656        -18.83562528         10.77264736
     1          3.67607490        -22.60125939          8.00556407

 Electric dipole moment (dipole orientation):
 (Debye = 10**-18 statcoulomb cm , SI units = C m)
                  (au)            (Debye)         (10**-30 SI)
   Tot        0.000000D+00      0.000000D+00      0.000000D+00
   x          0.000000D+00      0.000000D+00      0.000000D+00
   y          0.000000D+00      0.000000D+00      0.000000D+00
   z          0.000000D+00      0.000000D+00      0.000000D+00

 Dipole polarizability, Alpha (dipole orientation).
 (esu units = cm**3 , SI units = C**2 m**2 J**-1)
 Alpha(0;0):
               (au)            (10**-24 esu)      (10**-40 SI)
   iso        0.196367D+03      0.290986D+02      0.323765D+02
   aniso      0.121702D+03      0.180344D+02      0.200660D+02
   xx         0.170694D+03      0.252943D+02      0.281437D+02
   yx        -0.440741D+02     -0.653110D+01     -0.726683D+01
   yy         0.237186D+03      0.351474D+02      0.391068D+02
   zx         0.414381D+02      0.614049D+01      0.683222D+01
   zy        -0.380040D+00     -0.563162D-01     -0.626602D-01
   zz         0.181220D+03      0.268540D+02      0.298791D+02

 ----------------------------------------------------------------------

 This type of calculation cannot be archived.


 OPTIMIST - A PESSIMIST WHO LACKS EXPERIENCE
 Job cpu time:       0 days  0 hours 10 minutes 56.6 seconds.
 Elapsed time:       0 days  0 hours  0 minutes 20.8 seconds.
 File lengths (MBytes):  RWF=      6 Int=      0 D2E=      0 Chk=     24 Scr=      1
 Normal termination of Gaussian 16 at Mon Mar  4 15:13:25 2024.
