 Entering Gaussian System, Link 0=g16
 Input=DPB_manualdisplacement.gjf
 Output=DPB_manualdisplacement.log
 Initial command:
 /apps/gaussian/g16-c01-avx2/g16/l1.exe "/var/tmp/pbs.9075643.pbs/Gau-2485606.inp" -scrdir="/var/tmp/pbs.9075643.pbs/"
 Entering Link 1 = /apps/gaussian/g16-c01-avx2/g16/l1.exe PID=   2485607.
  
 Copyright (c) 1988-2019, Gaussian, Inc.  All Rights Reserved.
  
 This is part of the Gaussian(R) 16 program.  It is based on
 the Gaussian(R) 09 system (copyright 2009, Gaussian, Inc.),
 the Gaussian(R) 03 system (copyright 2003, Gaussian, Inc.),
 the Gaussian(R) 98 system (copyright 1998, Gaussian, Inc.),
 the Gaussian(R) 94 system (copyright 1995, Gaussian, Inc.),
 the Gaussian 92(TM) system (copyright 1992, Gaussian, Inc.),
 the Gaussian 90(TM) system (copyright 1990, Gaussian, Inc.),
 the Gaussian 88(TM) system (copyright 1988, Gaussian, Inc.),
 the Gaussian 86(TM) system (copyright 1986, Carnegie Mellon
 University), and the Gaussian 82(TM) system (copyright 1983,
 Carnegie Mellon University). Gaussian is a federally registered
 trademark of Gaussian, Inc.
  
 This software contains proprietary and confidential information,
 including trade secrets, belonging to Gaussian, Inc.
  
 This software is provided under written license and may be
 used, copied, transmitted, or stored only in accord with that
 written license.
  
 The following legend is applicable only to US Government
 contracts under FAR:
  
                    RESTRICTED RIGHTS LEGEND
  
 Use, reproduction and disclosure by the US Government is
 subject to restrictions as set forth in subparagraphs (a)
 and (c) of the Commercial Computer Software - Restricted
 Rights clause in FAR 52.227-19.
  
 Gaussian, Inc.
 340 Quinnipiac St., Bldg. 40, Wallingford CT 06492
  
  
 ---------------------------------------------------------------
 Warning -- This program may not be used in any manner that
 competes with the business of Gaussian, Inc. or will provide
 assistance to any competitor of Gaussian, Inc.  The licensee
 of this program is prohibited from giving any competitor of
 Gaussian, Inc. access to this program.  By using this program,
 the user acknowledges that Gaussian, Inc. is engaged in the
 business of creating and licensing software in the field of
 computational chemistry and represents and warrants to the
 licensee that it is not a competitor of Gaussian, Inc. and that
 it will not use this program in any manner prohibited above.
 ---------------------------------------------------------------
  

 Cite this work as:
 Gaussian 16, Revision C.01,
 M. J. Frisch, G. W. Trucks, H. B. Schlegel, G. E. Scuseria, 
 M. A. Robb, J. R. Cheeseman, G. Scalmani, V. Barone, 
 G. A. Petersson, H. Nakatsuji, X. Li, M. Caricato, A. V. Marenich, 
 J. Bloino, B. G. Janesko, R. Gomperts, B. Mennucci, H. P. Hratchian, 
 J. V. Ortiz, A. F. Izmaylov, J. L. Sonnenberg, D. Williams-Young, 
 F. Ding, F. Lipparini, F. Egidi, J. Goings, B. Peng, A. Petrone, 
 T. Henderson, D. Ranasinghe, V. G. Zakrzewski, J. Gao, N. Rega, 
 G. Zheng, W. Liang, M. Hada, M. Ehara, K. Toyota, R. Fukuda, 
 J. Hasegawa, M. Ishida, T. Nakajima, Y. Honda, O. Kitao, H. Nakai, 
 T. Vreven, K. Throssell, J. A. Montgomery, Jr., J. E. Peralta, 
 F. Ogliaro, M. J. Bearpark, J. J. Heyd, E. N. Brothers, K. N. Kudin, 
 V. N. Staroverov, T. A. Keith, R. Kobayashi, J. Normand, 
 K. Raghavachari, A. P. Rendell, J. C. Burant, S. S. Iyengar, 
 J. Tomasi, M. Cossi, J. M. Millam, M. Klene, C. Adamo, R. Cammi, 
 J. W. Ochterski, R. L. Martin, K. Morokuma, O. Farkas, 
 J. B. Foresman, and D. J. Fox, Gaussian, Inc., Wallingford CT, 2019.
 
 ******************************************
 Gaussian 16:  ES64L-G16RevC.01  3-Jul-2019
                 8-Mar-2024 
 ******************************************
 %chk=DPB1.chk
 %NProcShared=64
 Will use up to   64 processors via shared memory.
 %Mem=250GB
 ----------------------------------------------------------------------
 #p CAM-B3LYP/TZVP SCRF(solvent=cyclohexane) geom=connectivity Opt Freq
 ----------------------------------------------------------------------
 1/18=20,19=15,26=3,38=1,57=2/1,3;
 2/9=110,12=2,17=6,18=5,40=1/2;
 3/5=19,7=101,11=2,25=1,30=1,70=2201,71=1,72=17,74=-40/1,2,3;
 4//1;
 5/5=2,38=5,53=17/2;
 6/7=2,8=2,9=2,10=2,28=1/1;
 7//1,2,3,16;
 1/18=20,19=15,26=3/3(2);
 2/9=110/2;
 99//99;
 2/9=110/2;
 3/5=19,7=101,11=2,25=1,30=1,70=2205,71=1,72=17,74=-40/1,2,3;
 4/5=5,16=3,69=1/1;
 5/5=2,38=5,53=17/2;
 7//1,2,3,16;
 1/18=20,19=15,26=3/3(-5);
 2/9=110/2;
 6/7=2,8=2,9=2,10=2,19=2,28=1/1;
 99/9=1/99;
 Leave Link    1 at Fri Mar  8 16:21:49 2024, MaxMem= 33554432000 cpu:               1.6 elap:               0.0
 (Enter /apps/gaussian/g16-c01-avx2/g16/l101.exe)
 ----------------------------------------------------------------------
 Ground state calculation for DPB molecule, later to be used for excite
 d state and FC-HT analysis.
 ----------------------------------------------------------------------
 Symbolic Z-matrix:
 Charge =  0 Multiplicity = 1
 C                    -2.62766   0.91489   0. 
 C                    -1.2325    0.91489   0. 
 C                    -0.53496   2.12264   0. 
 C                    -1.23262   3.33115  -0.0012 
 C                    -2.62744   3.33108  -0.00168 
 C                    -3.32504   2.12287  -0.00068 
 H                    -3.17742  -0.03742   0.00045 
 H                     0.56472   2.12272   0.00063 
 H                    -0.68242   4.2833   -0.00126 
 H                    -3.17756   4.28336  -0.00263 
 H                    -4.42465   2.12305  -0.00086 
 C                    -0.46295  -0.41904   0.00184 
 H                    -0.19832  -0.88062   0.93018 
 C                    -0.11975  -1.0103   -1.16828 
 H                    -0.38161  -0.5535   -2.09977 
 C                     0.64977  -2.34421  -1.15729 
 H                     0.91163  -2.80101  -0.22581 
 C                     0.99643  -2.94148  -2.32334 
 H                     0.73735  -2.48948  -3.25793 
 C                     1.7659   -4.27532  -2.3032 
 C                     3.16102  -4.27568  -2.2927 
 C                     1.06813  -5.48305  -2.29534 
 C                     3.85813  -5.48355  -2.27503 
 H                     3.71084  -3.32337  -2.29968 
 C                     1.76529  -6.69136  -2.27667 
 H                    -0.03145  -5.48294  -2.30343 
 C                     3.16008  -6.6918   -2.26665 
 H                     4.95778  -5.48392  -2.26739 
 H                     1.21486  -7.64344  -2.27006 
 H                     3.70995  -7.64403  -2.25266 
 
 ITRead=  0  0  0  0  0  0  0  0  0  0  0  0  0  0  0  0  0  0  0  0
 ITRead=  0  0  0  0  0  0  0  0  0  0
 MicOpt= -1 -1 -1 -1 -1 -1 -1 -1 -1 -1 -1 -1 -1 -1 -1 -1 -1 -1 -1 -1
 MicOpt= -1 -1 -1 -1 -1 -1 -1 -1 -1 -1
 NAtoms=     30 NQM=       30 NQMF=       0 NMMI=      0 NMMIF=      0
                NMic=       0 NMicF=      0.
                    Isotopes and Nuclear Properties:
 (Nuclear quadrupole moments (NQMom) in fm**2, nuclear magnetic moments (NMagM)
  in nuclear magnetons)

  Atom         1           2           3           4           5           6           7           8           9          10
 IAtWgt=          12          12          12          12          12          12           1           1           1           1
 AtmWgt=  12.0000000  12.0000000  12.0000000  12.0000000  12.0000000  12.0000000   1.0078250   1.0078250   1.0078250   1.0078250
 NucSpn=           0           0           0           0           0           0           1           1           1           1
 AtZEff=  -0.0000000  -0.0000000  -0.0000000  -0.0000000  -0.0000000  -0.0000000  -0.0000000  -0.0000000  -0.0000000  -0.0000000
 NQMom=    0.0000000   0.0000000   0.0000000   0.0000000   0.0000000   0.0000000   0.0000000   0.0000000   0.0000000   0.0000000
 NMagM=    0.0000000   0.0000000   0.0000000   0.0000000   0.0000000   0.0000000   2.7928460   2.7928460   2.7928460   2.7928460
 AtZNuc=   6.0000000   6.0000000   6.0000000   6.0000000   6.0000000   6.0000000   1.0000000   1.0000000   1.0000000   1.0000000

  Atom        11          12          13          14          15          16          17          18          19          20
 IAtWgt=           1          12           1          12           1          12           1          12           1          12
 AtmWgt=   1.0078250  12.0000000   1.0078250  12.0000000   1.0078250  12.0000000   1.0078250  12.0000000   1.0078250  12.0000000
 NucSpn=           1           0           1           0           1           0           1           0           1           0
 AtZEff=  -0.0000000  -0.0000000  -0.0000000  -0.0000000  -0.0000000  -0.0000000  -0.0000000  -0.0000000  -0.0000000  -0.0000000
 NQMom=    0.0000000   0.0000000   0.0000000   0.0000000   0.0000000   0.0000000   0.0000000   0.0000000   0.0000000   0.0000000
 NMagM=    2.7928460   0.0000000   2.7928460   0.0000000   2.7928460   0.0000000   2.7928460   0.0000000   2.7928460   0.0000000
 AtZNuc=   1.0000000   6.0000000   1.0000000   6.0000000   1.0000000   6.0000000   1.0000000   6.0000000   1.0000000   6.0000000

  Atom        21          22          23          24          25          26          27          28          29          30
 IAtWgt=          12          12          12           1          12           1          12           1           1           1
 AtmWgt=  12.0000000  12.0000000  12.0000000   1.0078250  12.0000000   1.0078250  12.0000000   1.0078250   1.0078250   1.0078250
 NucSpn=           0           0           0           1           0           1           0           1           1           1
 AtZEff=  -0.0000000  -0.0000000  -0.0000000  -0.0000000  -0.0000000  -0.0000000  -0.0000000  -0.0000000  -0.0000000  -0.0000000
 NQMom=    0.0000000   0.0000000   0.0000000   0.0000000   0.0000000   0.0000000   0.0000000   0.0000000   0.0000000   0.0000000
 NMagM=    0.0000000   0.0000000   0.0000000   2.7928460   0.0000000   2.7928460   0.0000000   2.7928460   2.7928460   2.7928460
 AtZNuc=   6.0000000   6.0000000   6.0000000   1.0000000   6.0000000   1.0000000   6.0000000   1.0000000   1.0000000   1.0000000
 Leave Link  101 at Fri Mar  8 16:21:59 2024, MaxMem= 33554432000 cpu:               9.6 elap:               0.2
 (Enter /apps/gaussian/g16-c01-avx2/g16/l103.exe)

 GradGradGradGradGradGradGradGradGradGradGradGradGradGradGradGradGradGrad
 Berny optimization.
 Initialization pass.
                           ----------------------------
                           !    Initial Parameters    !
                           ! (Angstroms and Degrees)  !
 --------------------------                            --------------------------
 ! Name  Definition              Value          Derivative Info.                !
 --------------------------------------------------------------------------------
 ! R1    R(1,2)                  1.3952         estimate D2E/DX2                !
 ! R2    R(1,6)                  1.3948         estimate D2E/DX2                !
 ! R3    R(1,7)                  1.0996         estimate D2E/DX2                !
 ! R4    R(2,3)                  1.3947         estimate D2E/DX2                !
 ! R5    R(2,12)                 1.54           estimate D2E/DX2                !
 ! R6    R(3,4)                  1.3954         estimate D2E/DX2                !
 ! R7    R(3,8)                  1.0997         estimate D2E/DX2                !
 ! R8    R(4,5)                  1.3948         estimate D2E/DX2                !
 ! R9    R(4,9)                  1.0997         estimate D2E/DX2                !
 ! R10   R(5,6)                  1.3951         estimate D2E/DX2                !
 ! R11   R(5,10)                 1.0998         estimate D2E/DX2                !
 ! R12   R(6,11)                 1.0996         estimate D2E/DX2                !
 ! R13   R(12,13)                1.07           estimate D2E/DX2                !
 ! R14   R(12,14)                1.3552         estimate D2E/DX2                !
 ! R15   R(14,15)                1.07           estimate D2E/DX2                !
 ! R16   R(14,16)                1.54           estimate D2E/DX2                !
 ! R17   R(16,17)                1.07           estimate D2E/DX2                !
 ! R18   R(16,18)                1.3552         estimate D2E/DX2                !
 ! R19   R(18,19)                1.07           estimate D2E/DX2                !
 ! R20   R(18,20)                1.54           estimate D2E/DX2                !
 ! R21   R(20,21)                1.3952         estimate D2E/DX2                !
 ! R22   R(20,22)                1.3948         estimate D2E/DX2                !
 ! R23   R(21,23)                1.3947         estimate D2E/DX2                !
 ! R24   R(21,24)                1.0997         estimate D2E/DX2                !
 ! R25   R(22,25)                1.3951         estimate D2E/DX2                !
 ! R26   R(22,26)                1.0996         estimate D2E/DX2                !
 ! R27   R(23,27)                1.3954         estimate D2E/DX2                !
 ! R28   R(23,28)                1.0997         estimate D2E/DX2                !
 ! R29   R(25,27)                1.3948         estimate D2E/DX2                !
 ! R30   R(25,29)                1.0998         estimate D2E/DX2                !
 ! R31   R(27,30)                1.0997         estimate D2E/DX2                !
 ! A1    A(2,1,6)              119.9985         estimate D2E/DX2                !
 ! A2    A(2,1,7)              119.9972         estimate D2E/DX2                !
 ! A3    A(6,1,7)              120.0043         estimate D2E/DX2                !
 ! A4    A(1,2,3)              120.0086         estimate D2E/DX2                !
 ! A5    A(1,2,12)             119.9808         estimate D2E/DX2                !
 ! A6    A(3,2,12)             120.0106         estimate D2E/DX2                !
 ! A7    A(2,3,4)              119.9942         estimate D2E/DX2                !
 ! A8    A(2,3,8)              120.0128         estimate D2E/DX2                !
 ! A9    A(4,3,8)              119.993          estimate D2E/DX2                !
 ! A10   A(3,4,5)              119.994          estimate D2E/DX2                !
 ! A11   A(3,4,9)              119.9811         estimate D2E/DX2                !
 ! A12   A(5,4,9)              120.0249         estimate D2E/DX2                !
 ! A13   A(4,5,6)              120.0047         estimate D2E/DX2                !
 ! A14   A(4,5,10)             120.0113         estimate D2E/DX2                !
 ! A15   A(6,5,10)             119.984          estimate D2E/DX2                !
 ! A16   A(1,6,5)              120.0            estimate D2E/DX2                !
 ! A17   A(1,6,11)             120.008          estimate D2E/DX2                !
 ! A18   A(5,6,11)             119.992          estimate D2E/DX2                !
 ! A19   A(2,12,13)            119.8865         estimate D2E/DX2                !
 ! A20   A(2,12,14)            120.2269         estimate D2E/DX2                !
 ! A21   A(13,12,14)           119.8865         estimate D2E/DX2                !
 ! A22   A(12,14,15)           120.2269         estimate D2E/DX2                !
 ! A23   A(12,14,16)           119.8865         estimate D2E/DX2                !
 ! A24   A(15,14,16)           119.8865         estimate D2E/DX2                !
 ! A25   A(14,16,17)           119.8865         estimate D2E/DX2                !
 ! A26   A(14,16,18)           120.2269         estimate D2E/DX2                !
 ! A27   A(17,16,18)           119.8865         estimate D2E/DX2                !
 ! A28   A(16,18,19)           120.2269         estimate D2E/DX2                !
 ! A29   A(16,18,20)           119.8865         estimate D2E/DX2                !
 ! A30   A(19,18,20)           119.8865         estimate D2E/DX2                !
 ! A31   A(18,20,21)           119.9972         estimate D2E/DX2                !
 ! A32   A(18,20,22)           120.0043         estimate D2E/DX2                !
 ! A33   A(21,20,22)           119.9985         estimate D2E/DX2                !
 ! A34   A(20,21,23)           120.0086         estimate D2E/DX2                !
 ! A35   A(20,21,24)           119.9808         estimate D2E/DX2                !
 ! A36   A(23,21,24)           120.0106         estimate D2E/DX2                !
 ! A37   A(20,22,25)           120.0            estimate D2E/DX2                !
 ! A38   A(20,22,26)           120.008          estimate D2E/DX2                !
 ! A39   A(25,22,26)           119.992          estimate D2E/DX2                !
 ! A40   A(21,23,27)           119.9942         estimate D2E/DX2                !
 ! A41   A(21,23,28)           120.0128         estimate D2E/DX2                !
 ! A42   A(27,23,28)           119.993          estimate D2E/DX2                !
 ! A43   A(22,25,27)           120.0047         estimate D2E/DX2                !
 ! A44   A(22,25,29)           119.984          estimate D2E/DX2                !
 ! A45   A(27,25,29)           120.0113         estimate D2E/DX2                !
 ! A46   A(23,27,25)           119.994          estimate D2E/DX2                !
 ! A47   A(23,27,30)           119.9811         estimate D2E/DX2                !
 ! A48   A(25,27,30)           120.0249         estimate D2E/DX2                !
 ! D1    D(6,1,2,3)              0.0323         estimate D2E/DX2                !
 ! D2    D(6,1,2,12)           179.9532         estimate D2E/DX2                !
 ! D3    D(7,1,2,3)           -179.9729         estimate D2E/DX2                !
 ! D4    D(7,1,2,12)            -0.052          estimate D2E/DX2                !
 ! D5    D(2,1,6,5)              0.0149         estimate D2E/DX2                !
 ! D6    D(2,1,6,11)           179.9892         estimate D2E/DX2                !
 ! D7    D(7,1,6,5)           -179.9798         estimate D2E/DX2                !
 ! D8    D(7,1,6,11)            -0.0056         estimate D2E/DX2                !
 ! D9    D(1,2,3,4)             -0.0568         estimate D2E/DX2                !
 ! D10   D(1,2,3,8)            179.9619         estimate D2E/DX2                !
 ! D11   D(12,2,3,4)          -179.9777         estimate D2E/DX2                !
 ! D12   D(12,2,3,8)             0.041          estimate D2E/DX2                !
 ! D13   D(1,2,12,13)          -89.8714         estimate D2E/DX2                !
 ! D14   D(1,2,12,14)           90.1286         estimate D2E/DX2                !
 ! D15   D(3,2,12,13)           90.0495         estimate D2E/DX2                !
 ! D16   D(3,2,12,14)          -89.9505         estimate D2E/DX2                !
 ! D17   D(2,3,4,5)              0.0341         estimate D2E/DX2                !
 ! D18   D(2,3,4,9)           -179.9964         estimate D2E/DX2                !
 ! D19   D(8,3,4,5)           -179.9846         estimate D2E/DX2                !
 ! D20   D(8,3,4,9)             -0.0151         estimate D2E/DX2                !
 ! D21   D(3,4,5,6)              0.0131         estimate D2E/DX2                !
 ! D22   D(3,4,5,10)          -179.9995         estimate D2E/DX2                !
 ! D23   D(9,4,5,6)           -179.9563         estimate D2E/DX2                !
 ! D24   D(9,4,5,10)             0.0311         estimate D2E/DX2                !
 ! D25   D(4,5,6,1)             -0.0376         estimate D2E/DX2                !
 ! D26   D(4,5,6,11)           179.9881         estimate D2E/DX2                !
 ! D27   D(10,5,6,1)           179.975          estimate D2E/DX2                !
 ! D28   D(10,5,6,11)            0.0007         estimate D2E/DX2                !
 ! D29   D(2,12,14,15)           0.0            estimate D2E/DX2                !
 ! D30   D(2,12,14,16)         180.0            estimate D2E/DX2                !
 ! D31   D(13,12,14,15)        180.0            estimate D2E/DX2                !
 ! D32   D(13,12,14,16)          0.0            estimate D2E/DX2                !
 ! D33   D(12,14,16,17)          0.0            estimate D2E/DX2                !
 ! D34   D(12,14,16,18)       -180.0            estimate D2E/DX2                !
 ! D35   D(15,14,16,17)        180.0            estimate D2E/DX2                !
 ! D36   D(15,14,16,18)          0.0            estimate D2E/DX2                !
 ! D37   D(14,16,18,19)          0.0            estimate D2E/DX2                !
 ! D38   D(14,16,18,20)        180.0            estimate D2E/DX2                !
 ! D39   D(17,16,18,19)       -180.0            estimate D2E/DX2                !
 ! D40   D(17,16,18,20)          0.0            estimate D2E/DX2                !
 ! D41   D(16,18,20,21)        -90.0239         estimate D2E/DX2                !
 ! D42   D(16,18,20,22)         89.9708         estimate D2E/DX2                !
 ! D43   D(19,18,20,21)         89.9761         estimate D2E/DX2                !
 ! D44   D(19,18,20,22)        -90.0292         estimate D2E/DX2                !
 ! D45   D(18,20,21,23)       -179.9729         estimate D2E/DX2                !
 ! D46   D(18,20,21,24)         -0.052          estimate D2E/DX2                !
 ! D47   D(22,20,21,23)          0.0323         estimate D2E/DX2                !
 ! D48   D(22,20,21,24)        179.9532         estimate D2E/DX2                !
 ! D49   D(18,20,22,25)       -179.9798         estimate D2E/DX2                !
 ! D50   D(18,20,22,26)         -0.0056         estimate D2E/DX2                !
 ! D51   D(21,20,22,25)          0.0149         estimate D2E/DX2                !
 ! D52   D(21,20,22,26)        179.9892         estimate D2E/DX2                !
 ! D53   D(20,21,23,27)         -0.0568         estimate D2E/DX2                !
 ! D54   D(20,21,23,28)        179.9619         estimate D2E/DX2                !
 ! D55   D(24,21,23,27)       -179.9777         estimate D2E/DX2                !
 ! D56   D(24,21,23,28)          0.041          estimate D2E/DX2                !
 ! D57   D(20,22,25,27)         -0.0376         estimate D2E/DX2                !
 ! D58   D(20,22,25,29)        179.975          estimate D2E/DX2                !
 ! D59   D(26,22,25,27)        179.9881         estimate D2E/DX2                !
 ! D60   D(26,22,25,29)          0.0007         estimate D2E/DX2                !
 ! D61   D(21,23,27,25)          0.0341         estimate D2E/DX2                !
 ! D62   D(21,23,27,30)       -179.9964         estimate D2E/DX2                !
 ! D63   D(28,23,27,25)       -179.9846         estimate D2E/DX2                !
 ! D64   D(28,23,27,30)         -0.0151         estimate D2E/DX2                !
 ! D65   D(22,25,27,23)          0.0131         estimate D2E/DX2                !
 ! D66   D(22,25,27,30)       -179.9563         estimate D2E/DX2                !
 ! D67   D(29,25,27,23)       -179.9995         estimate D2E/DX2                !
 ! D68   D(29,25,27,30)          0.031          estimate D2E/DX2                !
 --------------------------------------------------------------------------------
 Trust Radius=3.00D-01 FncErr=1.00D-07 GrdErr=1.00D-06 EigMax=2.50D+02 EigMin=1.00D-04
 Number of steps in this run=    157 maximum allowed number of steps=    180.
 GradGradGradGradGradGradGradGradGradGradGradGradGradGradGradGradGradGrad

 Leave Link  103 at Fri Mar  8 16:22:00 2024, MaxMem= 33554432000 cpu:               0.7 elap:               0.0
 (Enter /apps/gaussian/g16-c01-avx2/g16/l202.exe)
                          Input orientation:                          
 ---------------------------------------------------------------------
 Center     Atomic      Atomic             Coordinates (Angstroms)
 Number     Number       Type             X           Y           Z
 ---------------------------------------------------------------------
      1          6           0       -2.627660    0.914894    0.000000
      2          6           0       -1.232500    0.914894    0.000000
      3          6           0       -0.534962    2.122645    0.000000
      4          6           0       -1.232616    3.331154   -0.001199
      5          6           0       -2.627441    3.331076   -0.001678
      6          6           0       -3.325042    2.122870   -0.000682
      7          1           0       -3.177419   -0.037423    0.000450
      8          1           0        0.564718    2.122725    0.000634
      9          1           0       -0.682416    4.283297   -0.001258
     10          1           0       -3.177563    4.283357   -0.002631
     11          1           0       -4.424646    2.123053   -0.000862
     12          6           0       -0.462947   -0.419043    0.001842
     13          1           0       -0.198323   -0.880624    0.930182
     14          6           0       -0.119748   -1.010300   -1.168285
     15          1           0       -0.381607   -0.553502   -2.099770
     16          6           0        0.649773   -2.344211   -1.157294
     17          1           0        0.911632   -2.801009   -0.225808
     18          6           0        0.996434   -2.941483   -2.323337
     19          1           0        0.737350   -2.489484   -3.257935
     20          6           0        1.765897   -4.275320   -2.303197
     21          6           0        3.161017   -4.275679   -2.292701
     22          6           0        1.068125   -5.483046   -2.295336
     23          6           0        3.858131   -5.483546   -2.275031
     24          1           0        3.710838   -3.323372   -2.299680
     25          6           0        1.765295   -6.691357   -2.276665
     26          1           0       -0.031449   -5.482944   -2.303427
     27          6           0        3.160084   -6.691799   -2.266650
     28          1           0        4.957785   -5.483915   -2.267391
     29          1           0        1.214862   -7.643436   -2.270056
     30          1           0        3.709949   -7.644032   -2.252659
 ---------------------------------------------------------------------
                    Distance matrix (angstroms):
                    1          2          3          4          5
     1  C    0.000000
     2  C    1.395160   0.000000
     3  C    2.416205   1.394712   0.000000
     4  C    2.790065   2.416260   1.395427   0.000000
     5  C    2.416183   2.789946   2.416356   1.394825   0.000000
     6  C    1.394829   2.416183   2.790080   2.416236   1.395138
     7  H    1.099610   2.165553   3.412986   3.889675   3.413102
     8  H    3.413229   2.165375   1.099680   2.165806   3.413209
     9  H    3.889745   3.413024   2.165678   1.099680   2.165606
    10  H    3.413055   3.889707   3.413506   2.165528   1.099761
    11  H    2.165365   3.413128   3.889684   3.412999   2.165471
    12  C    2.542709   1.540000   2.542708   3.828364   4.329946
    13  H    3.160822   2.271265   3.161991   4.435798   4.950494
    14  C    3.370591   2.511867   3.369367   4.631283   5.147527
    15  H    3.407341   2.699859   3.405042   4.496528   4.953353
    16  C    4.764730   3.937517   4.764002   6.090131   6.654656
    17  H    5.136682   4.296070   5.136729   6.500128   7.083624
    18  C    5.779584   5.023712   5.778275   7.050316   7.607073
    19  H    5.790269   5.107273   5.788320   6.954633   7.470203
    20  C    7.179580   6.421325   7.178622   8.494040   9.080510
    21  C    8.106004   7.176456   7.736620   9.078485   9.829433
    22  C    7.736991   7.176007   8.104627   9.393965   9.828876
    23  C    9.390489   8.487068   9.073542  10.430002  11.177134
    24  H    7.964168   6.905650   7.278354   8.602526   9.472922
    25  C    9.073935   8.486756   9.389409  10.705883  11.176799
    26  H    7.278627   6.905116   7.962680   9.188654   9.472284
    27  C    9.823311   9.071618   9.822702  11.175314  11.793369
    28  H   10.179626   9.187243   9.652517  11.007367  11.847918
    29  H    9.652105   9.186280  10.177985  11.470810  11.846887
    30  H   10.885539  10.136937  10.884931  12.245518  12.871768
                    6          7          8          9         10
     6  C    0.000000
     7  H    2.165331   0.000000
     8  H    3.889760   4.320860   0.000000
     9  H    3.413344   4.989355   2.494678   0.000000
    10  H    2.165516   4.320781   4.321228   2.495147   0.000000
    11  H    1.099604   2.494641   4.989364   4.320988   2.494420
    12  C    3.827912   2.741166   2.741656   4.707459   5.429707
    13  H    4.434394   3.232708   3.235181   5.269536   6.034294
    14  C    4.631842   3.414935   3.413314   5.449836   6.223486
    15  H    4.498104   3.534660   3.531206   5.280990   5.967459
    16  C    6.090296   4.616171   4.615359   6.858206   7.739922
    17  H    6.499589   4.940539   4.941131   7.264902   8.182882
    18  C    7.051067   5.590581   5.588687   7.772260   8.660614
    19  H    6.956042   5.652883   5.649827   7.648022   8.473188
    20  C    8.494472   6.906731   6.905465   9.194731  10.147972
    21  C    9.394878   7.962231   7.275969   9.658093  10.893994
    22  C    9.078287   7.276681   7.960694  10.183744  10.893346
    23  C   10.706456   9.183519   8.595381  11.008080  12.249783
    24  H    9.189698   7.970956   6.696975   9.079913  10.516122
    25  C   10.429871   8.595958   9.182348  11.472218  12.249384
    26  H    8.602255   6.697661   7.969335  10.055008  10.515337
    27  C   11.175412   9.464903   9.464266  11.846920  12.874222
    28  H   11.471982  10.049324   9.072152  11.504158  12.911724
    29  H   11.006431   9.071866  10.047717  12.287964  12.910577
    30  H   12.245606  10.505847  10.505206  12.908247  13.955753
                   11         12         13         14         15
    11  H    0.000000
    12  C    4.707155   0.000000
    13  H    5.267895   1.070000   0.000000
    14  C    5.450956   1.355200   2.103938   0.000000
    15  H    5.283514   2.107479   3.053066   1.070000   0.000000
    16  C    6.858826   2.507591   2.686802   1.540000   2.271265
    17  H    7.264492   2.759539   2.501238   2.271265   3.199295
    18  C    7.773771   3.728131   4.032366   2.511867   2.766123
    19  H    7.650504   4.043956   4.583038   2.699859   2.518221
    20  C    9.195800   5.015160   5.082997   3.937517   4.301754
    21  C   10.185214   5.768162   5.761818   4.763448   5.142180
    22  C    9.658565   5.767611   5.761089   4.763060   5.142020
    23  C   11.473298   7.035983   6.922074   6.087556   6.504724
    24  H   10.056550   5.581453   5.628549   4.615598   4.945731
    25  C   11.008563   7.035523   6.921292   6.087389   6.504902
    26  H    9.080373   5.580641   5.627204   4.615288   4.946058
    27  C   11.847511   7.590776   7.434271   6.651551   7.088731
    28  H   12.289553   7.758008   7.615787   6.855845   7.269538
    29  H   11.503808   7.756831   7.614082   6.855186   7.269449
    30  H   12.908841   8.642703   8.434972   7.736204   8.187785
                   16         17         18         19         20
    16  C    0.000000
    17  H    1.070000   0.000000
    18  C    1.355200   2.103938   0.000000
    19  H    2.107479   3.053066   1.070000   0.000000
    20  C    2.507591   2.686802   1.540000   2.271265   0.000000
    21  C    3.365423   3.392114   2.542919   3.161698   1.395160
    22  C    3.364884   3.391277   2.542728   3.161870   1.394829
    23  C    4.625833   4.480757   3.828019   4.435063   2.416205
    24  H    3.410854   3.522693   2.741238   3.233459   2.165414
    25  C    4.625480   4.479907   3.828169   4.435685   2.416183
    26  H    3.410181   3.521175   2.741526   3.234647   2.165365
    27  C    5.141387   4.935465   4.330065   4.950933   2.790065
    28  H    5.445092   5.266631   4.707376   5.268763   3.413229
    29  H    5.444204   5.264979   4.707326   5.269454   3.413055
    30  H    6.217123   5.949250   5.429745   6.034592   3.889745
                   21         22         23         24         25
    21  C    0.000000
    22  C    2.416183   0.000000
    23  C    1.394712   2.790080   0.000000
    24  H    1.099655   3.412938   2.165330   0.000000
    25  C    2.789946   1.395138   2.416356   3.889601   0.000000
    26  H    3.413128   1.099604   3.889684   4.320704   2.165471
    27  C    2.416260   2.416236   1.395427   3.413316   1.394825
    28  H    2.165375   3.889760   1.099680   2.494768   3.413209
    29  H    3.889707   2.165516   3.413506   4.989362   1.099761
    30  H    3.413024   3.413344   2.165678   4.320917   2.165606
                   26         27         28         29         30
    26  H    0.000000
    27  C    3.412999   0.000000
    28  H    4.989364   2.165806   0.000000
    29  H    2.494420   2.165528   4.321228   0.000000
    30  H    4.320988   1.099680   2.494678   2.495147   0.000000
 Stoichiometry    C16H14
 Framework group  C1[X(C16H14)]
 Deg. of freedom    84
 Full point group                 C1      NOp   1
 Largest Abelian subgroup         C1      NOp   1
 Largest concise Abelian subgroup C1      NOp   1
                         Standard orientation:                         
 ---------------------------------------------------------------------
 Center     Atomic      Atomic             Coordinates (Angstroms)
 Number     Number       Type             X           Y           Z
 ---------------------------------------------------------------------
      1          6           0       -3.862908    1.208268   -0.208444
      2          6           0       -3.186355    0.000108   -0.379024
      3          6           0       -3.862134   -1.207937   -0.208229
      4          6           0       -5.214825   -1.208174    0.134474
      5          6           0       -5.891033   -0.000265    0.305460
      6          6           0       -5.215146    1.208062    0.133611
      7          1           0       -3.330041    2.160598   -0.343584
      8          1           0       -3.329090   -2.160262   -0.343279
      9          1           0       -5.747428   -2.160799    0.269144
     10          1           0       -6.957110   -0.000118    0.575558
     11          1           0       -5.748485    2.160189    0.268268
     12          6           0       -1.693647    0.000810   -0.757735
     13          1           0       -1.404994    0.002341   -1.788063
     14          6           0       -0.744400   -0.000505    0.209476
     15          1           0       -1.026927   -0.002038    1.241501
     16          6           0        0.746032    0.000209   -0.178097
     17          1           0        1.028558    0.001742   -1.210122
     18          6           0        1.701008   -0.001097    0.783457
     19          1           0        1.424619   -0.002631    1.817143
     20          6           0        3.189111   -0.000370    0.387036
     21          6           0        3.863377   -1.208317    0.206208
     22          6           0        3.862832    1.207864    0.208653
     23          6           0        5.211235   -1.207937   -0.152262
     24          1           0        3.332146   -2.160695    0.347668
     25          6           0        5.210845    1.208418   -0.150889
     26          1           0        3.331511    2.160007    0.350959
     27          6           0        5.885137    0.000799   -0.331228
     28          1           0        5.742929   -2.160015   -0.294197
     29          1           0        5.741678    2.161212   -0.291869
     30          1           0        6.947859    0.000849   -0.613926
 ---------------------------------------------------------------------
 Rotational constants (GHZ):           2.3725871           0.1445710           0.1389087
 Leave Link  202 at Fri Mar  8 16:22:01 2024, MaxMem= 33554432000 cpu:               1.3 elap:               0.0
 (Enter /apps/gaussian/g16-c01-avx2/g16/l301.exe)
 Standard basis: TZVP (5D, 7F)
 Ernie: Thresh=  0.10000D-02 Tol=  0.10000D-05 Strict=F.
 There are   404 symmetry adapted cartesian basis functions of A   symmetry.
 There are   388 symmetry adapted basis functions of A   symmetry.
   388 basis functions,   672 primitive gaussians,   404 cartesian basis functions
    55 alpha electrons       55 beta electrons
       nuclear repulsion energy       863.2556719349 Hartrees.
 IExCor=20419 DFT=T Ex+Corr=CAM-B3LYP ExCW=0 ScaHFX=  1.000000
 ScaDFX=  1.000000  1.000000  1.000000  0.810000 ScalE2=  1.000000  1.000000
 IRadAn=      5 IRanWt=     -1 IRanGd=            0 ICorTp=0 IEmpDi=  4
 HFx  wShort=  0.000000 wLong=  0.330000 cFull=  0.190000 cShort=  0.000000 cLong=  0.460000
 DFx  wShort=  0.000000 wLong=  0.330000 cFull=  0.190000 cShort=  0.000000 cLong=  0.460000
 NAtoms=   30 NActive=   30 NUniq=   30 SFac= 1.00D+00 NAtFMM=   60 NAOKFM=F Big=F
 Integral buffers will be    131072 words long.
 Raffenetti 2 integral format.
 Two-electron integral symmetry is turned on.
 ------------------------------------------------------------------------------
 Polarizable Continuum Model (PCM)
 =================================
 Model                : PCM.
 Atomic radii         : UFF (Universal Force Field).
 Polarization charges : Total charges.
 Charge compensation  : None.
 Solution method      : On-the-fly selection.
 Cavity type          : Scaled VdW (van der Waals Surface) (Alpha=1.100).
 Cavity algorithm     : GePol (No added spheres)
                        Default sphere list used, NSphG=   30.
                        Lebedev-Laikov grids with approx.  5.0 points / Ang**2.
                        Smoothing algorithm: York/Karplus (Gamma=1.0000).
                        Polarization charges: spherical gaussians, with
                                              point-specific exponents (IZeta= 3).
                        Self-potential: point-specific (ISelfS= 7).
                        Self-field    : sphere-specific E.n sum rule (ISelfD= 2).
 1st derivatives      : Analytical E(r).r(x)/FMM algorithm (CHGder, D1EAlg=3).
                        Cavity 1st derivative terms included.
 Solvent              : CycloHexane, Eps=   2.016500 Eps(inf)=   2.035188
 ------------------------------------------------------------------------------
 GePol: Number of generator spheres                  =      30
 GePol: Total number of spheres                      =      30
 GePol: Number of exposed spheres                    =      30 (100.00%)
 GePol: Number of points                             =    2450
 GePol: Average weight of points                     =       0.13
 GePol: Minimum weight of points                     =   0.31D-08
 GePol: Maximum weight of points                     =    0.20577
 GePol: Number of points with low weight             =     168
 GePol: Fraction of low-weight points (<1% of avg)   =       6.86%
 GePol: Cavity surface area                          =    321.761 Ang**2
 GePol: Cavity volume                                =    330.172 Ang**3
 Leave Link  301 at Fri Mar  8 16:22:09 2024, MaxMem= 33554432000 cpu:               4.7 elap:               0.1
 (Enter /apps/gaussian/g16-c01-avx2/g16/l302.exe)
 NPDir=0 NMtPBC=     1 NCelOv=     1 NCel=       1 NClECP=     1 NCelD=      1
         NCelK=      1 NCelE2=     1 NClLst=     1 CellRange=     0.0.
 One-electron integrals computed using PRISM.
 One-electron integral symmetry used in STVInt
 NBasis=   388 RedAO= T EigKep=  9.45D-06  NBF=   388
 NBsUse=   388 1.00D-06 EigRej= -1.00D+00 NBFU=   388
 Precomputing XC quadrature grid using
 IXCGrd= 4 IRadAn=           5 IRanWt=          -1 IRanGd=           0 AccXCQ= 0.00D+00.
 Generated NRdTot=       0 NPtTot=           0 NUsed=           0 NTot=          32
 NSgBfM=   387   387   387   387   387 MxSgAt=    30 MxSgA2=    30.
 Leave Link  302 at Fri Mar  8 16:22:10 2024, MaxMem= 33554432000 cpu:              18.7 elap:               0.3
 (Enter /apps/gaussian/g16-c01-avx2/g16/l303.exe)
 DipDrv:  MaxL=1.
 Leave Link  303 at Fri Mar  8 16:22:14 2024, MaxMem= 33554432000 cpu:               2.7 elap:               0.1
 (Enter /apps/gaussian/g16-c01-avx2/g16/l401.exe)
 ExpMin= 9.52D-02 ExpMax= 1.36D+04 ExpMxC= 4.63D+02 IAcc=3 IRadAn=         5 AccDes= 0.00D+00
 Harris functional with IExCor=20419 and IRadAn=       5 diagonalized for initial guess.
 HarFok:  IExCor=20419 AccDes= 0.00D+00 IRadAn=         5 IDoV= 1 UseB2=F ITyADJ=14
 ICtDFT=  3500011 ScaDFX=  1.000000  1.000000  1.000000  1.000000
 FoFCou: FMM=F IPFlag=           0 FMFlag=      100000 FMFlg1=           0
         NFxFlg=           0 DoJE=T BraDBF=F KetDBF=T FulRan=T
         wScrn=  0.000000 ICntrl=       500 IOpCl=  0 I1Cent=   200000004 NGrid=           0
         NMat0=    1 NMatS0=      1 NMatT0=    0 NMatD0=    1 NMtDS0=    0 NMtDT0=    0
 Petite list used in FoFCou.
 Harris En= -592.431692407246    
 JPrj=0 DoOrth=F DoCkMO=F.
 Leave Link  401 at Fri Mar  8 16:22:15 2024, MaxMem= 33554432000 cpu:              25.6 elap:               0.4
 (Enter /apps/gaussian/g16-c01-avx2/g16/l502.exe)
 Integral symmetry usage will be decided dynamically.
 Closed shell SCF:
 Using DIIS extrapolation, IDIIS=  1040.
 NGot= 33554432000 LenX= 33554074974 LenY= 33553911317
 Requested convergence on RMS density matrix=1.00D-08 within 128 cycles.
 Requested convergence on MAX density matrix=1.00D-06.
 Requested convergence on             energy=1.00D-06.
 No special actions if energy rises.
 Fock matrices will be formed incrementally for  20 cycles.

 Cycle   1  Pass 1  IDiag  1:
 FoFJK:  IHMeth= 1 ICntrl=       0 DoSepK=T KAlg= 0 I1Cent=           0 FoldK=F
 IRaf=         1 NMat=       1 IRICut=       1 DoRegI=T DoRafI=F ISym2E= 0 IDoP0=0 IntGTp=1.
 FoFCou: FMM=F IPFlag=           0 FMFlag=      100000 FMFlg1=           0
         NFxFlg=           0 DoJE=T BraDBF=F KetDBF=F FulRan=T
         wScrn=  0.000000 ICntrl=       500 IOpCl=  0 I1Cent=           0 NGrid=           0
         NMat0=    1 NMatS0=      1 NMatT0=    0 NMatD0=    1 NMtDS0=    0 NMtDT0=    0
 Symmetry not used in FoFCou.
 Inv3:  Mode=1 IEnd=    18007500.
 Iteration    1 A*A^-1 deviation from unit magnitude is 3.55D-15 for   1610.
 Iteration    1 A*A^-1 deviation from orthogonality  is 3.49D-15 for   1192    505.
 Iteration    1 A^-1*A deviation from unit magnitude is 3.33D-15 for   1610.
 Iteration    1 A^-1*A deviation from orthogonality  is 1.44D-15 for   2300   2002.
 E= -617.790268638651    
 DIIS: error= 6.08D-02 at cycle   1 NSaved=   1.
 NSaved= 1 IEnMin= 1 EnMin= -617.790268638651     IErMin= 1 ErrMin= 6.08D-02
 ErrMax= 6.08D-02  0.00D+00 EMaxC= 1.00D-01 BMatC= 1.01D+00 BMatP= 1.01D+00
 IDIUse=3 WtCom= 3.92D-01 WtEn= 6.08D-01
 Coeff-Com:  0.100D+01
 Coeff-En:   0.100D+01
 Coeff:      0.100D+01
 Gap=     0.299 Goal=   None    Shift=    0.000
 GapD=    0.299 DampG=1.000 DampE=0.500 DampFc=0.5000 IDamp=-1.
 Damping current iteration by 5.00D-01
 RMSDP=2.30D-03 MaxDP=7.72D-02              OVMax= 5.03D-02

 Cycle   2  Pass 1  IDiag  1:
 RMSU=  1.06D-03    CP:  9.54D-01
 E= -617.855592709887     Delta-E=       -0.065324071235 Rises=F Damp=T
 DIIS: error= 2.98D-02 at cycle   2 NSaved=   2.
 NSaved= 2 IEnMin= 2 EnMin= -617.855592709887     IErMin= 2 ErrMin= 2.98D-02
 ErrMax= 2.98D-02  0.00D+00 EMaxC= 1.00D-01 BMatC= 2.26D-01 BMatP= 1.01D+00
 IDIUse=3 WtCom= 7.02D-01 WtEn= 2.98D-01
 Coeff-Com: -0.846D+00 0.185D+01
 Coeff-En:   0.000D+00 0.100D+01
 Coeff:     -0.594D+00 0.159D+01
 Gap=     0.303 Goal=   None    Shift=    0.000
 RMSDP=1.24D-03 MaxDP=4.03D-02 DE=-6.53D-02 OVMax= 3.90D-02

 Cycle   3  Pass 1  IDiag  1:
 RMSU=  6.96D-04    CP:  9.13D-01  1.89D+00
 E= -617.911875014039     Delta-E=       -0.056282304153 Rises=F Damp=F
 DIIS: error= 4.86D-03 at cycle   3 NSaved=   3.
 NSaved= 3 IEnMin= 3 EnMin= -617.911875014039     IErMin= 3 ErrMin= 4.86D-03
 ErrMax= 4.86D-03  0.00D+00 EMaxC= 1.00D-01 BMatC= 6.79D-03 BMatP= 2.26D-01
 IDIUse=3 WtCom= 9.51D-01 WtEn= 4.86D-02
 Coeff-Com: -0.334D+00 0.722D+00 0.613D+00
 Coeff-En:   0.000D+00 0.000D+00 0.100D+01
 Coeff:     -0.318D+00 0.687D+00 0.631D+00
 Gap=     0.305 Goal=   None    Shift=    0.000
 RMSDP=2.67D-04 MaxDP=7.98D-03 DE=-5.63D-02 OVMax= 2.09D-02

 Cycle   4  Pass 1  IDiag  1:
 RMSU=  1.51D-04    CP:  9.09D-01  2.02D+00  7.53D-01
 E= -617.917908894060     Delta-E=       -0.006033880021 Rises=F Damp=F
 DIIS: error= 1.34D-03 at cycle   4 NSaved=   4.
 NSaved= 4 IEnMin= 4 EnMin= -617.917908894060     IErMin= 4 ErrMin= 1.34D-03
 ErrMax= 1.34D-03  0.00D+00 EMaxC= 1.00D-01 BMatC= 3.62D-04 BMatP= 6.79D-03
 IDIUse=3 WtCom= 9.87D-01 WtEn= 1.34D-02
 Coeff-Com: -0.149D+00 0.321D+00 0.320D+00 0.507D+00
 Coeff-En:   0.000D+00 0.000D+00 0.000D+00 0.100D+01
 Coeff:     -0.147D+00 0.317D+00 0.316D+00 0.514D+00
 Gap=     0.303 Goal=   None    Shift=    0.000
 RMSDP=6.39D-05 MaxDP=1.41D-03 DE=-6.03D-03 OVMax= 5.22D-03

 Cycle   5  Pass 1  IDiag  1:
 RMSU=  4.88D-05    CP:  9.08D-01  2.03D+00  7.74D-01  7.84D-01
 E= -617.918271057483     Delta-E=       -0.000362163423 Rises=F Damp=F
 DIIS: error= 2.37D-04 at cycle   5 NSaved=   5.
 NSaved= 5 IEnMin= 5 EnMin= -617.918271057483     IErMin= 5 ErrMin= 2.37D-04
 ErrMax= 2.37D-04  0.00D+00 EMaxC= 1.00D-01 BMatC= 1.26D-05 BMatP= 3.62D-04
 IDIUse=3 WtCom= 9.98D-01 WtEn= 2.37D-03
 Coeff-Com:  0.264D-02-0.575D-02 0.349D-02 0.143D+00 0.856D+00
 Coeff-En:   0.000D+00 0.000D+00 0.000D+00 0.000D+00 0.100D+01
 Coeff:      0.264D-02-0.573D-02 0.348D-02 0.143D+00 0.856D+00
 Gap=     0.303 Goal=   None    Shift=    0.000
 RMSDP=2.57D-05 MaxDP=5.56D-04 DE=-3.62D-04 OVMax= 1.96D-03

 Cycle   6  Pass 1  IDiag  1:
 RMSU=  1.27D-05    CP:  9.08D-01  2.04D+00  7.92D-01  8.82D-01  9.76D-01
 E= -617.918284075510     Delta-E=       -0.000013018027 Rises=F Damp=F
 DIIS: error= 1.28D-04 at cycle   6 NSaved=   6.
 NSaved= 6 IEnMin= 6 EnMin= -617.918284075510     IErMin= 6 ErrMin= 1.28D-04
 ErrMax= 1.28D-04  0.00D+00 EMaxC= 1.00D-01 BMatC= 2.51D-06 BMatP= 1.26D-05
 IDIUse=3 WtCom= 9.99D-01 WtEn= 1.28D-03
 Coeff-Com:  0.121D-01-0.262D-01-0.218D-01 0.258D-01 0.402D+00 0.608D+00
 Coeff-En:   0.000D+00 0.000D+00 0.000D+00 0.000D+00 0.000D+00 0.100D+01
 Coeff:      0.121D-01-0.262D-01-0.218D-01 0.258D-01 0.401D+00 0.609D+00
 Gap=     0.303 Goal=   None    Shift=    0.000
 RMSDP=5.86D-06 MaxDP=1.62D-04 DE=-1.30D-05 OVMax= 6.98D-04

 Cycle   7  Pass 1  IDiag  1:
 RMSU=  3.47D-06    CP:  9.08D-01  2.05D+00  7.94D-01  8.95D-01  1.02D+00
                    CP:  8.43D-01
 E= -617.918286816250     Delta-E=       -0.000002740739 Rises=F Damp=F
 DIIS: error= 1.84D-05 at cycle   7 NSaved=   7.
 NSaved= 7 IEnMin= 7 EnMin= -617.918286816250     IErMin= 7 ErrMin= 1.84D-05
 ErrMax= 1.84D-05  0.00D+00 EMaxC= 1.00D-01 BMatC= 6.24D-08 BMatP= 2.51D-06
 IDIUse=1 WtCom= 1.00D+00 WtEn= 0.00D+00
 Coeff-Com:  0.269D-02-0.582D-02-0.482D-02-0.349D-02 0.379D-01 0.138D+00
 Coeff-Com:  0.835D+00
 Coeff:      0.269D-02-0.582D-02-0.482D-02-0.349D-02 0.379D-01 0.138D+00
 Coeff:      0.835D+00
 Gap=     0.303 Goal=   None    Shift=    0.000
 RMSDP=1.51D-06 MaxDP=3.78D-05 DE=-2.74D-06 OVMax= 2.05D-04

 Cycle   8  Pass 1  IDiag  1:
 RMSU=  9.96D-07    CP:  9.07D-01  2.05D+00  7.95D-01  8.98D-01  1.02D+00
                    CP:  9.00D-01  1.06D+00
 E= -617.918286902396     Delta-E=       -0.000000086146 Rises=F Damp=F
 DIIS: error= 9.29D-06 at cycle   8 NSaved=   8.
 NSaved= 8 IEnMin= 8 EnMin= -617.918286902396     IErMin= 8 ErrMin= 9.29D-06
 ErrMax= 9.29D-06  0.00D+00 EMaxC= 1.00D-01 BMatC= 1.87D-08 BMatP= 6.24D-08
 IDIUse=1 WtCom= 1.00D+00 WtEn= 0.00D+00
 Coeff-Com: -0.457D-03 0.101D-02 0.931D-03-0.571D-02-0.399D-01-0.178D-01
 Coeff-Com:  0.393D+00 0.669D+00
 Coeff:     -0.457D-03 0.101D-02 0.931D-03-0.571D-02-0.399D-01-0.178D-01
 Coeff:      0.393D+00 0.669D+00
 Gap=     0.303 Goal=   None    Shift=    0.000
 RMSDP=6.28D-07 MaxDP=1.51D-05 DE=-8.61D-08 OVMax= 7.82D-05

 Cycle   9  Pass 1  IDiag  1:
 RMSU=  3.59D-07    CP:  9.07D-01  2.05D+00  7.95D-01  8.99D-01  1.02D+00
                    CP:  9.24D-01  1.15D+00  1.08D+00
 E= -617.918286925256     Delta-E=       -0.000000022861 Rises=F Damp=F
 DIIS: error= 2.48D-06 at cycle   9 NSaved=   9.
 NSaved= 9 IEnMin= 9 EnMin= -617.918286925256     IErMin= 9 ErrMin= 2.48D-06
 ErrMax= 2.48D-06  0.00D+00 EMaxC= 1.00D-01 BMatC= 6.09D-10 BMatP= 1.87D-08
 IDIUse=1 WtCom= 1.00D+00 WtEn= 0.00D+00
 Coeff-Com: -0.339D-03 0.738D-03 0.632D-03-0.115D-02-0.120D-01-0.145D-01
 Coeff-Com:  0.118D-01 0.147D+00 0.868D+00
 Coeff:     -0.339D-03 0.738D-03 0.632D-03-0.115D-02-0.120D-01-0.145D-01
 Coeff:      0.118D-01 0.147D+00 0.868D+00
 Gap=     0.303 Goal=   None    Shift=    0.000
 RMSDP=1.90D-07 MaxDP=5.05D-06 DE=-2.29D-08 OVMax= 1.91D-05

 Cycle  10  Pass 1  IDiag  1:
 RMSU=  8.58D-08    CP:  9.07D-01  2.05D+00  7.95D-01  8.99D-01  1.02D+00
                    CP:  9.30D-01  1.17D+00  1.18D+00  1.13D+00
 E= -617.918286926528     Delta-E=       -0.000000001271 Rises=F Damp=F
 DIIS: error= 5.50D-07 at cycle  10 NSaved=  10.
 NSaved=10 IEnMin=10 EnMin= -617.918286926528     IErMin=10 ErrMin= 5.50D-07
 ErrMax= 5.50D-07  0.00D+00 EMaxC= 1.00D-01 BMatC= 1.12D-10 BMatP= 6.09D-10
 IDIUse=1 WtCom= 1.00D+00 WtEn= 0.00D+00
 Coeff-Com: -0.736D-04 0.159D-03 0.129D-03 0.492D-04-0.585D-03-0.285D-02
 Coeff-Com: -0.336D-01-0.120D-01 0.304D+00 0.745D+00
 Coeff:     -0.736D-04 0.159D-03 0.129D-03 0.492D-04-0.585D-03-0.285D-02
 Coeff:     -0.336D-01-0.120D-01 0.304D+00 0.745D+00
 Gap=     0.303 Goal=   None    Shift=    0.000
 RMSDP=5.91D-08 MaxDP=1.35D-06 DE=-1.27D-09 OVMax= 5.24D-06

 Cycle  11  Pass 1  IDiag  1:
 RMSU=  3.05D-08    CP:  9.07D-01  2.05D+00  7.95D-01  8.99D-01  1.02D+00
                    CP:  9.31D-01  1.17D+00  1.21D+00  1.20D+00  1.07D+00
 E= -617.918286926680     Delta-E=       -0.000000000152 Rises=F Damp=F
 DIIS: error= 3.43D-07 at cycle  11 NSaved=  11.
 NSaved=11 IEnMin=11 EnMin= -617.918286926680     IErMin=11 ErrMin= 3.43D-07
 ErrMax= 3.43D-07  0.00D+00 EMaxC= 1.00D-01 BMatC= 1.16D-11 BMatP= 1.12D-10
 IDIUse=1 WtCom= 1.00D+00 WtEn= 0.00D+00
 Coeff-Com:  0.284D-04-0.624D-04-0.521D-04 0.197D-03 0.178D-02 0.180D-02
 Coeff-Com: -0.132D-01-0.283D-01-0.372D-01 0.240D+00 0.835D+00
 Coeff:      0.284D-04-0.624D-04-0.521D-04 0.197D-03 0.178D-02 0.180D-02
 Coeff:     -0.132D-01-0.283D-01-0.372D-01 0.240D+00 0.835D+00
 Gap=     0.303 Goal=   None    Shift=    0.000
 RMSDP=2.50D-08 MaxDP=7.29D-07 DE=-1.52D-10 OVMax= 2.08D-06

 Cycle  12  Pass 1  IDiag  1:
 RMSU=  1.17D-08    CP:  9.08D-01  2.05D+00  7.95D-01  8.99D-01  1.02D+00
                    CP:  9.31D-01  1.17D+00  1.22D+00  1.23D+00  1.18D+00
                    CP:  1.10D+00
 E= -617.918286926697     Delta-E=       -0.000000000016 Rises=F Damp=F
 DIIS: error= 4.69D-08 at cycle  12 NSaved=  12.
 NSaved=12 IEnMin=12 EnMin= -617.918286926697     IErMin=12 ErrMin= 4.69D-08
 ErrMax= 4.69D-08  0.00D+00 EMaxC= 1.00D-01 BMatC= 4.59D-13 BMatP= 1.16D-11
 IDIUse=1 WtCom= 1.00D+00 WtEn= 0.00D+00
 Coeff-Com:  0.423D-05-0.902D-05-0.518D-05 0.707D-08 0.104D-04 0.233D-03
 Coeff-Com:  0.155D-02 0.562D-03-0.117D-01-0.484D-01 0.286D-01 0.103D+01
 Coeff:      0.423D-05-0.902D-05-0.518D-05 0.707D-08 0.104D-04 0.233D-03
 Coeff:      0.155D-02 0.562D-03-0.117D-01-0.484D-01 0.286D-01 0.103D+01
 Gap=     0.303 Goal=   None    Shift=    0.000
 RMSDP=6.17D-09 MaxDP=1.24D-07 DE=-1.63D-11 OVMax= 5.31D-07

 Error on total polarization charges =  0.01096
 SCF Done:  E(RCAM-B3LYP) =  -617.918286927     A.U. after   12 cycles
            NFock= 12  Conv=0.62D-08     -V/T= 2.0056
 KE= 6.145007179086D+02 PE=-3.159373536637D+03 EE= 1.063698859867D+03
 Leave Link  502 at Fri Mar  8 16:22:37 2024, MaxMem= 33554432000 cpu:            1350.7 elap:              22.0
 (Enter /apps/gaussian/g16-c01-avx2/g16/l601.exe)
 Copying SCF densities to generalized density rwf, IOpCl= 0 IROHF=0.

 **********************************************************************

            Population analysis using the SCF Density.

 **********************************************************************

 Orbital symmetries:
       Occupied  (A) (A) (A) (A) (A) (A) (A) (A) (A) (A) (A) (A)
                 (A) (A) (A) (A) (A) (A) (A) (A) (A) (A) (A) (A)
                 (A) (A) (A) (A) (A) (A) (A) (A) (A) (A) (A) (A)
                 (A) (A) (A) (A) (A) (A) (A) (A) (A) (A) (A) (A)
                 (A) (A) (A) (A) (A) (A) (A)
       Virtual   (A) (A) (A) (A) (A) (A) (A) (A) (A) (A) (A) (A)
                 (A) (A) (A) (A) (A) (A) (A) (A) (A) (A) (A) (A)
                 (A) (A) (A) (A) (A) (A) (A) (A) (A) (A) (A) (A)
                 (A) (A) (A) (A) (A) (A) (A) (A) (A) (A) (A) (A)
                 (A) (A) (A) (A) (A) (A) (A) (A) (A) (A) (A) (A)
                 (A) (A) (A) (A) (A) (A) (A) (A) (A) (A) (A) (A)
                 (A) (A) (A) (A) (A) (A) (A) (A) (A) (A) (A) (A)
                 (A) (A) (A) (A) (A) (A) (A) (A) (A) (A) (A) (A)
                 (A) (A) (A) (A) (A) (A) (A) (A) (A) (A) (A) (A)
                 (A) (A) (A) (A) (A) (A) (A) (A) (A) (A) (A) (A)
                 (A) (A) (A) (A) (A) (A) (A) (A) (A) (A) (A) (A)
                 (A) (A) (A) (A) (A) (A) (A) (A) (A) (A) (A) (A)
                 (A) (A) (A) (A) (A) (A) (A) (A) (A) (A) (A) (A)
                 (A) (A) (A) (A) (A) (A) (A) (A) (A) (A) (A) (A)
                 (A) (A) (A) (A) (A) (A) (A) (A) (A) (A) (A) (A)
                 (A) (A) (A) (A) (A) (A) (A) (A) (A) (A) (A) (A)
                 (A) (A) (A) (A) (A) (A) (A) (A) (A) (A) (A) (A)
                 (A) (A) (A) (A) (A) (A) (A) (A) (A) (A) (A) (A)
                 (A) (A) (A) (A) (A) (A) (A) (A) (A) (A) (A) (A)
                 (A) (A) (A) (A) (A) (A) (A) (A) (A) (A) (A) (A)
                 (A) (A) (A) (A) (A) (A) (A) (A) (A) (A) (A) (A)
                 (A) (A) (A) (A) (A) (A) (A) (A) (A) (A) (A) (A)
                 (A) (A) (A) (A) (A) (A) (A) (A) (A) (A) (A) (A)
                 (A) (A) (A) (A) (A) (A) (A) (A) (A) (A) (A) (A)
                 (A) (A) (A) (A) (A) (A) (A) (A) (A) (A) (A) (A)
                 (A) (A) (A) (A) (A) (A) (A) (A) (A) (A) (A) (A)
                 (A) (A) (A) (A) (A) (A) (A) (A) (A) (A) (A) (A)
                 (A) (A) (A) (A) (A) (A) (A) (A) (A)
 The electronic state is 1-A.
 Alpha  occ. eigenvalues --  -10.26531 -10.26518 -10.26140 -10.26117 -10.25768
 Alpha  occ. eigenvalues --  -10.25753 -10.25432 -10.25427 -10.25424 -10.25419
 Alpha  occ. eigenvalues --  -10.25290 -10.25285 -10.25282 -10.25275 -10.25272
 Alpha  occ. eigenvalues --  -10.25267  -0.94857  -0.94755  -0.89278  -0.86210
 Alpha  occ. eigenvalues --   -0.83041  -0.83038  -0.82710  -0.79101  -0.70382
 Alpha  occ. eigenvalues --   -0.68265  -0.68255  -0.67331  -0.64004  -0.63954
 Alpha  occ. eigenvalues --   -0.59319  -0.58384  -0.54238  -0.53144  -0.52676
 Alpha  occ. eigenvalues --   -0.52628  -0.51303  -0.50491  -0.49100  -0.49092
 Alpha  occ. eigenvalues --   -0.47498  -0.47293  -0.44296  -0.43802  -0.43664
 Alpha  occ. eigenvalues --   -0.41375  -0.41240  -0.41003  -0.38999  -0.38164
 Alpha  occ. eigenvalues --   -0.31453  -0.31429  -0.31079  -0.30862  -0.29137
 Alpha virt. eigenvalues --    0.01170   0.02676   0.02979   0.03284   0.03291
 Alpha virt. eigenvalues --    0.08902   0.09045   0.09169   0.10456   0.11781
 Alpha virt. eigenvalues --    0.12093   0.12239   0.12915   0.13047   0.14024
 Alpha virt. eigenvalues --    0.15272   0.15380   0.15773   0.15802   0.15809
 Alpha virt. eigenvalues --    0.17587   0.19623   0.19738   0.20846   0.20864
 Alpha virt. eigenvalues --    0.22265   0.22956   0.23667   0.24146   0.24560
 Alpha virt. eigenvalues --    0.26195   0.26360   0.26891   0.26939   0.27002
 Alpha virt. eigenvalues --    0.27295   0.27775   0.28374   0.28481   0.28569
 Alpha virt. eigenvalues --    0.30083   0.30667   0.30708   0.31043   0.32046
 Alpha virt. eigenvalues --    0.32052   0.32865   0.33998   0.34911   0.36118
 Alpha virt. eigenvalues --    0.37376   0.38152   0.38629   0.38732   0.39351
 Alpha virt. eigenvalues --    0.39749   0.40394   0.40897   0.41040   0.41256
 Alpha virt. eigenvalues --    0.41295   0.41319   0.42006   0.42802   0.43301
 Alpha virt. eigenvalues --    0.45311   0.46126   0.46178   0.46887   0.46998
 Alpha virt. eigenvalues --    0.47061   0.47579   0.48251   0.49481   0.49499
 Alpha virt. eigenvalues --    0.49897   0.50541   0.50617   0.51058   0.52222
 Alpha virt. eigenvalues --    0.52512   0.52568   0.53807   0.53984   0.55324
 Alpha virt. eigenvalues --    0.55395   0.55920   0.56128   0.56281   0.56394
 Alpha virt. eigenvalues --    0.57738   0.60310   0.60494   0.63011   0.63752
 Alpha virt. eigenvalues --    0.64383   0.64694   0.66879   0.66972   0.70768
 Alpha virt. eigenvalues --    0.70898   0.71271   0.71683   0.74219   0.74350
 Alpha virt. eigenvalues --    0.74550   0.76147   0.76975   0.77176   0.77600
 Alpha virt. eigenvalues --    0.80825   0.80984   0.82989   0.84549   0.85425
 Alpha virt. eigenvalues --    0.94980   0.94995   1.19591   1.19691   1.26313
 Alpha virt. eigenvalues --    1.26851   1.28118   1.29200   1.29900   1.30754
 Alpha virt. eigenvalues --    1.31283   1.31301   1.31360   1.31822   1.32169
 Alpha virt. eigenvalues --    1.33088   1.33580   1.34631   1.35470   1.35863
 Alpha virt. eigenvalues --    1.36705   1.36783   1.36959   1.37348   1.37421
 Alpha virt. eigenvalues --    1.38232   1.38648   1.38818   1.43404   1.43620
 Alpha virt. eigenvalues --    1.44113   1.46600   1.47085   1.47684   1.47822
 Alpha virt. eigenvalues --    1.49408   1.49793   1.50451   1.50859   1.51041
 Alpha virt. eigenvalues --    1.51045   1.51234   1.51392   1.51425   1.52529
 Alpha virt. eigenvalues --    1.52626   1.52757   1.53986   1.54323   1.54600
 Alpha virt. eigenvalues --    1.55838   1.55992   1.56145   1.56231   1.57530
 Alpha virt. eigenvalues --    1.58800   1.59073   1.59171   1.60488   1.60629
 Alpha virt. eigenvalues --    1.60723   1.61552   1.62635   1.64486   1.66648
 Alpha virt. eigenvalues --    1.67071   1.67426   1.68267   1.68513   1.69728
 Alpha virt. eigenvalues --    1.70875   1.74049   1.77443   1.82195   1.82491
 Alpha virt. eigenvalues --    1.83059   1.83128   1.83978   1.84195   1.85436
 Alpha virt. eigenvalues --    1.85499   1.85889   1.86127   1.89081   1.89175
 Alpha virt. eigenvalues --    1.90902   1.91125   1.92598   1.93006   1.93170
 Alpha virt. eigenvalues --    1.93638   1.93756   1.94716   1.94972   1.95577
 Alpha virt. eigenvalues --    1.96176   1.96895   1.97583   1.97615   1.98068
 Alpha virt. eigenvalues --    1.98496   1.98885   2.02270   2.02291   2.03469
 Alpha virt. eigenvalues --    2.04174   2.07084   2.07192   2.07594   2.08254
 Alpha virt. eigenvalues --    2.11750   2.11872   2.16580   2.16728   2.17944
 Alpha virt. eigenvalues --    2.19434   2.23292   2.27802   2.29720   2.31111
 Alpha virt. eigenvalues --    2.32445   2.33107   2.33246   2.34334   2.37108
 Alpha virt. eigenvalues --    2.37145   2.37246   2.39527   2.39799   2.40694
 Alpha virt. eigenvalues --    2.41507   2.41595   2.43412   2.43677   2.45304
 Alpha virt. eigenvalues --    2.47582   2.49167   2.51314   2.55244   2.55788
 Alpha virt. eigenvalues --    2.55806   2.55905   2.55978   2.58685   2.58753
 Alpha virt. eigenvalues --    2.59896   2.60841   2.62986   2.65287   2.65854
 Alpha virt. eigenvalues --    2.68011   2.69425   2.69628   2.71157   2.72974
 Alpha virt. eigenvalues --    2.73294   2.73368   2.75598   2.76103   2.76218
 Alpha virt. eigenvalues --    2.76780   2.77358   2.77534   2.80538   2.85797
 Alpha virt. eigenvalues --    2.85935   2.86080   2.87004   2.90800   3.02501
 Alpha virt. eigenvalues --    3.03432   3.07172   3.07287   3.08612   3.08863
 Alpha virt. eigenvalues --    3.08890   3.11737   3.13701   3.15864   3.16289
 Alpha virt. eigenvalues --    3.18840   3.19127   3.20315   3.22378   3.23166
 Alpha virt. eigenvalues --    3.23390   3.26546   3.26791   3.29644   3.31704
 Alpha virt. eigenvalues --    3.35749   3.36571   3.36598   3.36614   3.46050
 Alpha virt. eigenvalues --    3.47002   3.50921   3.55808   3.58556   3.58678
 Alpha virt. eigenvalues --    3.83980   3.84048  21.32994  21.39593  21.78226
 Alpha virt. eigenvalues --   21.86992  21.87496  21.87823  21.90773  21.94572
 Alpha virt. eigenvalues --   22.10781  22.11192  22.14312  22.14375  22.17471
 Alpha virt. eigenvalues --   22.23241  22.30520  22.30917
          Condensed to atoms (all electrons):
               1          2          3          4          5          6
     1  C    5.025919   0.487348  -0.012354  -0.088128  -0.048626   0.456766
     2  C    0.487348   5.050967   0.487949  -0.040769  -0.047604  -0.040835
     3  C   -0.012354   0.487949   5.025475   0.456275  -0.048688  -0.088016
     4  C   -0.088128  -0.040769   0.456275   4.990721   0.486764  -0.033977
     5  C   -0.048626  -0.047604  -0.048688   0.486764   4.973120   0.486421
     6  C    0.456766  -0.040835  -0.088016  -0.033977   0.486421   4.990351
     7  H    0.413108  -0.037845   0.012344  -0.002699   0.009901  -0.047355
     8  H    0.012368  -0.037841   0.413139  -0.047416   0.009906  -0.002705
     9  H    0.000141   0.009994  -0.036651   0.402049  -0.038464   0.008313
    10  H    0.010156  -0.001893   0.010152  -0.037270   0.403810  -0.037317
    11  H   -0.036635   0.010005   0.000138   0.008316  -0.038526   0.402092
    12  C   -0.081842   0.241419  -0.081690   0.016360  -0.001490   0.016354
    13  H    0.004271  -0.024303   0.004303  -0.000978   0.000406  -0.000979
    14  C   -0.004852  -0.043448  -0.004836   0.001689  -0.000560   0.001687
    15  H    0.001344   0.001032   0.001359  -0.000710   0.000158  -0.000708
    16  C   -0.000562   0.008091  -0.000561   0.000138  -0.000031   0.000137
    17  H   -0.000011   0.001319  -0.000011   0.000002  -0.000001   0.000002
    18  C    0.000070  -0.001700   0.000070  -0.000004   0.000002  -0.000004
    19  H   -0.000004  -0.000190  -0.000004  -0.000001   0.000000  -0.000001
    20  C   -0.000008   0.000074  -0.000008   0.000000  -0.000000   0.000000
    21  C   -0.000000  -0.000009   0.000000  -0.000000   0.000000  -0.000000
    22  C    0.000000  -0.000009  -0.000000  -0.000000   0.000000  -0.000000
    23  C   -0.000000   0.000000  -0.000000   0.000000  -0.000000   0.000000
    24  H   -0.000000  -0.000004   0.000000  -0.000000   0.000000  -0.000000
    25  C   -0.000000   0.000000  -0.000000   0.000000  -0.000000   0.000000
    26  H    0.000000  -0.000004  -0.000000  -0.000000   0.000000  -0.000000
    27  C    0.000000  -0.000000   0.000000  -0.000000   0.000000  -0.000000
    28  H    0.000000  -0.000000  -0.000000  -0.000000  -0.000000   0.000000
    29  H   -0.000000  -0.000000   0.000000   0.000000  -0.000000  -0.000000
    30  H    0.000000   0.000000   0.000000   0.000000  -0.000000   0.000000
               7          8          9         10         11         12
     1  C    0.413108   0.012368   0.000141   0.010156  -0.036635  -0.081842
     2  C   -0.037845  -0.037841   0.009994  -0.001893   0.010005   0.241419
     3  C    0.012344   0.413139  -0.036651   0.010152   0.000138  -0.081690
     4  C   -0.002699  -0.047416   0.402049  -0.037270   0.008316   0.016360
     5  C    0.009901   0.009906  -0.038464   0.403810  -0.038526  -0.001490
     6  C   -0.047355  -0.002705   0.008313  -0.037317   0.402092   0.016354
     7  H    0.521889  -0.000126   0.000032  -0.000181  -0.003901  -0.003304
     8  H   -0.000126   0.521905  -0.003882  -0.000181   0.000032  -0.003341
     9  H    0.000032  -0.003882   0.528791  -0.004229  -0.000242  -0.000746
    10  H   -0.000181  -0.000181  -0.004229   0.524834  -0.004222  -0.000024
    11  H   -0.003901   0.000032  -0.000242  -0.004222   0.528802  -0.000745
    12  C   -0.003304  -0.003341  -0.000746  -0.000024  -0.000745   5.161231
    13  H    0.001606   0.001603   0.000013  -0.000001   0.000013   0.400889
    14  C   -0.002706  -0.002697  -0.000061   0.000003  -0.000060   0.629833
    15  H    0.000695   0.000700   0.000006  -0.000001   0.000005  -0.025449
    16  C   -0.000488  -0.000490  -0.000002   0.000000  -0.000002  -0.062290
    17  H    0.000012   0.000012   0.000000  -0.000000   0.000000  -0.000067
    18  C   -0.000017  -0.000017   0.000000  -0.000000   0.000000   0.005881
    19  H    0.000001   0.000001  -0.000000   0.000000  -0.000000   0.002116
    20  C   -0.000004  -0.000004  -0.000000   0.000000  -0.000000  -0.001707
    21  C   -0.000000   0.000000  -0.000000   0.000000   0.000000   0.000067
    22  C    0.000000  -0.000000   0.000000   0.000000  -0.000000   0.000068
    23  C   -0.000000  -0.000000  -0.000000   0.000000   0.000000  -0.000003
    24  H   -0.000000  -0.000000  -0.000000   0.000000  -0.000000  -0.000019
    25  C   -0.000000  -0.000000   0.000000   0.000000  -0.000000  -0.000003
    26  H   -0.000000  -0.000000  -0.000000   0.000000  -0.000000  -0.000019
    27  C    0.000000   0.000000  -0.000000  -0.000000  -0.000000   0.000002
    28  H   -0.000000  -0.000000  -0.000000   0.000000   0.000000   0.000000
    29  H   -0.000000  -0.000000   0.000000   0.000000  -0.000000   0.000000
    30  H    0.000000   0.000000   0.000000  -0.000000   0.000000  -0.000000
              13         14         15         16         17         18
     1  C    0.004271  -0.004852   0.001344  -0.000562  -0.000011   0.000070
     2  C   -0.024303  -0.043448   0.001032   0.008091   0.001319  -0.001700
     3  C    0.004303  -0.004836   0.001359  -0.000561  -0.000011   0.000070
     4  C   -0.000978   0.001689  -0.000710   0.000138   0.000002  -0.000004
     5  C    0.000406  -0.000560   0.000158  -0.000031  -0.000001   0.000002
     6  C   -0.000979   0.001687  -0.000708   0.000137   0.000002  -0.000004
     7  H    0.001606  -0.002706   0.000695  -0.000488   0.000012  -0.000017
     8  H    0.001603  -0.002697   0.000700  -0.000490   0.000012  -0.000017
     9  H    0.000013  -0.000061   0.000006  -0.000002   0.000000   0.000000
    10  H   -0.000001   0.000003  -0.000001   0.000000  -0.000000  -0.000000
    11  H    0.000013  -0.000060   0.000005  -0.000002   0.000000   0.000000
    12  C    0.400889   0.629833  -0.025449  -0.062290  -0.000067   0.005881
    13  H    0.504358  -0.049082   0.004220  -0.011779   0.002149   0.002210
    14  C   -0.049082   4.964752   0.396750   0.345047  -0.038733  -0.062434
    15  H    0.004220   0.396750   0.496583  -0.038692   0.002048  -0.000063
    16  C   -0.011779   0.345047  -0.038692   4.968020   0.396605   0.629648
    17  H    0.002149  -0.038733   0.002048   0.396605   0.496833  -0.025550
    18  C    0.002210  -0.062434  -0.000063   0.629648  -0.025550   5.158291
    19  H    0.000052  -0.011721   0.002062  -0.048869   0.004228   0.401106
    20  C   -0.000195   0.008200   0.001268  -0.043271   0.000884   0.241675
    21  C   -0.000005  -0.000570  -0.000012  -0.005124   0.001331  -0.081626
    22  C   -0.000005  -0.000569  -0.000011  -0.005106   0.001339  -0.081531
    23  C   -0.000001   0.000137   0.000002   0.001754  -0.000731   0.016399
    24  H    0.000001  -0.000488   0.000011  -0.002847   0.000709  -0.003093
    25  C   -0.000001   0.000137   0.000002   0.001749  -0.000732   0.016350
    26  H    0.000001  -0.000488   0.000011  -0.002841   0.000712  -0.003075
    27  C    0.000000  -0.000032  -0.000001  -0.000594   0.000166  -0.001536
    28  H   -0.000000  -0.000002   0.000000  -0.000062   0.000006  -0.000734
    29  H   -0.000000  -0.000002   0.000000  -0.000063   0.000006  -0.000734
    30  H    0.000000   0.000000  -0.000000   0.000003  -0.000002  -0.000024
              19         20         21         22         23         24
     1  C   -0.000004  -0.000008  -0.000000   0.000000  -0.000000  -0.000000
     2  C   -0.000190   0.000074  -0.000009  -0.000009   0.000000  -0.000004
     3  C   -0.000004  -0.000008   0.000000  -0.000000  -0.000000   0.000000
     4  C   -0.000001   0.000000  -0.000000  -0.000000   0.000000  -0.000000
     5  C    0.000000  -0.000000   0.000000   0.000000  -0.000000   0.000000
     6  C   -0.000001   0.000000  -0.000000  -0.000000   0.000000  -0.000000
     7  H    0.000001  -0.000004  -0.000000   0.000000  -0.000000  -0.000000
     8  H    0.000001  -0.000004   0.000000  -0.000000  -0.000000  -0.000000
     9  H   -0.000000  -0.000000  -0.000000   0.000000  -0.000000  -0.000000
    10  H    0.000000   0.000000   0.000000   0.000000   0.000000   0.000000
    11  H   -0.000000  -0.000000   0.000000  -0.000000   0.000000  -0.000000
    12  C    0.002116  -0.001707   0.000067   0.000068  -0.000003  -0.000019
    13  H    0.000052  -0.000195  -0.000005  -0.000005  -0.000001   0.000001
    14  C   -0.011721   0.008200  -0.000570  -0.000569   0.000137  -0.000488
    15  H    0.002062   0.001268  -0.000012  -0.000011   0.000002   0.000011
    16  C   -0.048869  -0.043271  -0.005124  -0.005106   0.001754  -0.002847
    17  H    0.004228   0.000884   0.001331   0.001339  -0.000731   0.000709
    18  C    0.401106   0.241675  -0.081626  -0.081531   0.016399  -0.003093
    19  H    0.504313  -0.024487   0.004295   0.004306  -0.000993   0.001615
    20  C   -0.024487   5.052632   0.486825   0.487418  -0.040615  -0.037943
    21  C    0.004295   0.486825   5.026477  -0.012196   0.456215   0.413324
    22  C    0.004306   0.487418  -0.012196   5.025952  -0.088144   0.012391
    23  C   -0.000993  -0.040615   0.456215  -0.088144   4.991165  -0.047593
    24  H    0.001615  -0.037943   0.413324   0.012391  -0.047593   0.522062
    25  C   -0.000994  -0.040620  -0.088196   0.455980  -0.033718  -0.002730
    26  H    0.001615  -0.037917   0.012405   0.413317  -0.002736  -0.000125
    27  C    0.000410  -0.048004  -0.048300  -0.048416   0.485949   0.009951
    28  H    0.000013   0.010014  -0.036560   0.000135   0.402001  -0.003919
    29  H    0.000013   0.010020   0.000129  -0.036617   0.008313   0.000032
    30  H   -0.000001  -0.001887   0.010143   0.010145  -0.037320  -0.000181
              25         26         27         28         29         30
     1  C   -0.000000   0.000000   0.000000   0.000000  -0.000000   0.000000
     2  C    0.000000  -0.000004  -0.000000  -0.000000  -0.000000   0.000000
     3  C   -0.000000  -0.000000   0.000000  -0.000000   0.000000   0.000000
     4  C    0.000000  -0.000000  -0.000000  -0.000000   0.000000   0.000000
     5  C   -0.000000   0.000000   0.000000  -0.000000  -0.000000  -0.000000
     6  C    0.000000  -0.000000  -0.000000   0.000000  -0.000000   0.000000
     7  H   -0.000000  -0.000000   0.000000  -0.000000  -0.000000   0.000000
     8  H   -0.000000  -0.000000   0.000000  -0.000000  -0.000000   0.000000
     9  H    0.000000  -0.000000  -0.000000  -0.000000   0.000000   0.000000
    10  H    0.000000   0.000000  -0.000000   0.000000   0.000000  -0.000000
    11  H   -0.000000  -0.000000  -0.000000   0.000000  -0.000000   0.000000
    12  C   -0.000003  -0.000019   0.000002   0.000000   0.000000  -0.000000
    13  H   -0.000001   0.000001   0.000000  -0.000000  -0.000000   0.000000
    14  C    0.000137  -0.000488  -0.000032  -0.000002  -0.000002   0.000000
    15  H    0.000002   0.000011  -0.000001   0.000000   0.000000  -0.000000
    16  C    0.001749  -0.002841  -0.000594  -0.000062  -0.000063   0.000003
    17  H   -0.000732   0.000712   0.000166   0.000006   0.000006  -0.000002
    18  C    0.016350  -0.003075  -0.001536  -0.000734  -0.000734  -0.000024
    19  H   -0.000994   0.001615   0.000410   0.000013   0.000013  -0.000001
    20  C   -0.040620  -0.037917  -0.048004   0.010014   0.010020  -0.001887
    21  C   -0.088196   0.012405  -0.048300  -0.036560   0.000129   0.010143
    22  C    0.455980   0.413317  -0.048416   0.000135  -0.036617   0.010145
    23  C   -0.033718  -0.002736   0.485949   0.402001   0.008313  -0.037320
    24  H   -0.002730  -0.000125   0.009951  -0.003919   0.000032  -0.000181
    25  C    4.991166  -0.047636   0.486396   0.008303   0.402008  -0.037254
    26  H   -0.047636   0.522010   0.009956   0.000032  -0.003908  -0.000180
    27  C    0.486396   0.009956   4.973789  -0.038513  -0.038483   0.403843
    28  H    0.008303   0.000032  -0.038513   0.528806  -0.000243  -0.004210
    29  H    0.402008  -0.003908  -0.038483  -0.000243   0.528856  -0.004231
    30  H   -0.037254  -0.000180   0.403843  -0.004210  -0.004231   0.524808
 Mulliken charges:
               1
     1  C   -0.138469
     2  C   -0.021744
     3  C   -0.138386
     4  C   -0.110362
     5  C   -0.146499
     6  C   -0.110229
     7  H    0.139037
     8  H    0.139032
     9  H    0.134938
    10  H    0.136365
    11  H    0.134928
    12  C   -0.211480
    13  H    0.161235
    14  C   -0.124896
    15  H    0.157393
    16  C   -0.127519
    17  H    0.157475
    18  C   -0.209562
    19  H    0.161119
    20  C   -0.022339
    21  C   -0.138614
    22  C   -0.138447
    23  C   -0.110081
    24  H    0.138844
    25  C   -0.110208
    26  H    0.138872
    27  C   -0.146586
    28  H    0.134933
    29  H    0.134904
    30  H    0.136347
 Sum of Mulliken charges =  -0.00000
 Mulliken charges with hydrogens summed into heavy atoms:
               1
     1  C    0.000567
     2  C   -0.021744
     3  C    0.000646
     4  C    0.024576
     5  C   -0.010134
     6  C    0.024699
    12  C   -0.050246
    14  C    0.032497
    16  C    0.029956
    18  C   -0.048443
    20  C   -0.022339
    21  C    0.000229
    22  C    0.000425
    23  C    0.024852
    25  C    0.024696
    27  C   -0.010239
 Electronic spatial extent (au):  <R**2>=           7341.8805
 Charge=             -0.0000 electrons
 Dipole moment (field-independent basis, Debye):
    X=             -0.0093    Y=              0.0002    Z=              0.0009  Tot=              0.0094
 Quadrupole moment (field-independent basis, Debye-Ang):
   XX=            -85.7817   YY=            -88.5723   ZZ=            -98.0548
   XY=             -0.0025   XZ=             -3.9097   YZ=             -0.0061
 Traceless Quadrupole moment (field-independent basis, Debye-Ang):
   XX=              5.0212   YY=              2.2306   ZZ=             -7.2519
   XY=             -0.0025   XZ=             -3.9097   YZ=             -0.0061
 Octapole moment (field-independent basis, Debye-Ang**2):
  XXX=             -0.9566  YYY=              0.0032  ZZZ=              0.3086  XYY=             -0.0470
  XXY=              0.0089  XXZ=             -0.7819  XZZ=              0.2892  YZZ=              0.0005
  YYZ=             -0.0874  XYZ=              0.0203
 Hexadecapole moment (field-independent basis, Debye-Ang**3):
 XXXX=          -8762.0048 YYYY=           -578.0109 ZZZZ=           -220.5264 XXXY=             -0.2736
 XXXZ=           -273.4026 YYYX=              0.0529 YYYZ=              0.0193 ZZZX=              6.3234
 ZZZY=             -0.0390 XXYY=          -1529.2830 XXZZ=          -1813.7056 YYZZ=           -157.7783
 XXYZ=              0.0577 YYXZ=             -9.3458 ZZXY=             -0.0189
 N-N= 8.632556719349D+02 E-N=-3.159373538017D+03  KE= 6.145007179086D+02
 No NMR shielding tensors so no spin-rotation constants.
 Leave Link  601 at Fri Mar  8 16:22:37 2024, MaxMem= 33554432000 cpu:              10.1 elap:               0.2
 (Enter /apps/gaussian/g16-c01-avx2/g16/l701.exe)
 ... and contract with generalized density number  0.
 Compute integral first derivatives.
 D1PCM: PCM CHGder 1st derivatives, ID1Alg=3 FixD1E=F DoIter=F DoCFld=F I1PDM=0.
 GePol: Maximum number of non-zero 1st derivatives   =     189
 Leave Link  701 at Fri Mar  8 16:22:38 2024, MaxMem= 33554432000 cpu:              46.1 elap:               0.7
 (Enter /apps/gaussian/g16-c01-avx2/g16/l702.exe)
 L702 exits ... SP integral derivatives will be done elsewhere.
 Leave Link  702 at Fri Mar  8 16:22:38 2024, MaxMem= 33554432000 cpu:               0.6 elap:               0.0
 (Enter /apps/gaussian/g16-c01-avx2/g16/l703.exe)
 Integral derivatives from FoFJK, PRISM(SPDF).
 Compute integral first derivatives, UseDBF=F ICtDFT=           0.
 Calling FoFJK, ICntrl=      2127 FMM=F ISym2X=0 I1Cent= 0 IOpClX= 0 NMat=1 NMatS=1 NMatT=0.
 FoFJK:  IHMeth= 1 ICntrl=    2127 DoSepK=T KAlg= 0 I1Cent=           0 FoldK=F
 IRaf=         1 NMat=       1 IRICut=       1 DoRegI=T DoRafI=F ISym2E= 0 IDoP0=0 IntGTp=1.
 FoFCou: FMM=F IPFlag=           0 FMFlag=      100000 FMFlg1=         800
         NFxFlg=           0 DoJE=F BraDBF=F KetDBF=F FulRan=T
         wScrn=  0.000000 ICntrl=      2527 IOpCl=  0 I1Cent=           0 NGrid=           0
         NMat0=    1 NMatS0=      1 NMatT0=    0 NMatD0=    1 NMtDS0=    0 NMtDT0=    0
 Symmetry not used in FoFCou.
 Leave Link  703 at Fri Mar  8 16:22:42 2024, MaxMem= 33554432000 cpu:             271.3 elap:               4.3
 (Enter /apps/gaussian/g16-c01-avx2/g16/l716.exe)
 Dipole        =-3.66152275D-03 9.10869678D-05 3.61717030D-04
 ***** Axes restored to original set *****
 -------------------------------------------------------------------
 Center     Atomic                   Forces (Hartrees/Bohr)
 Number     Number              X              Y              Z
 -------------------------------------------------------------------
      1        6          -0.004329444    0.000609624    0.000593333
      2        6           0.013605513   -0.023959664    0.004992737
      3        6           0.001606347    0.004477181    0.000538173
      4        6           0.000927886    0.002063035   -0.000238362
      5        6          -0.002014979    0.003339573    0.000117907
      6        6          -0.002316443    0.000612731   -0.000334061
      7        1           0.006297548    0.009570733    0.000049270
      8        1          -0.011483756   -0.000673528    0.000042653
      9        1          -0.005586638   -0.009812433   -0.000129104
     10        1           0.005706212   -0.009835033    0.000056176
     11        1           0.011239841   -0.000113621   -0.000106354
     12        6          -0.011094564    0.019411606   -0.043824223
     13        1           0.001175336   -0.002086574    0.010064585
     14        6           0.018263438   -0.031799984    0.051201331
     15        1          -0.000443177    0.000799367   -0.009930550
     16        6          -0.018053861    0.031445369   -0.051355964
     17        1           0.000304005   -0.000558165    0.010134854
     18        6           0.010974339   -0.019158362    0.044252426
     19        1          -0.001249787    0.002203387   -0.009894111
     20        6          -0.013538973    0.023638167   -0.005532711
     21        6           0.004287235   -0.000483634   -0.000712183
     22        6          -0.001617381   -0.004221079   -0.000525279
     23        6           0.002277658   -0.000890505    0.000373572
     24        1          -0.006290902   -0.009597423    0.000046325
     25        6          -0.000826067   -0.002343239    0.000288241
     26        1           0.011431368    0.000675550    0.000015377
     27        6           0.002127614   -0.003067617   -0.000091195
     28        1          -0.011288061    0.000111515    0.000036868
     29        1           0.005600453    0.009851621    0.000037002
     30        1          -0.005690760    0.009791402   -0.000166733
 -------------------------------------------------------------------
 Cartesian Forces:  Max     0.051355964 RMS     0.013409769
 Leave Link  716 at Fri Mar  8 16:22:42 2024, MaxMem= 33554432000 cpu:               0.8 elap:               0.0
 (Enter /apps/gaussian/g16-c01-avx2/g16/l103.exe)

 GradGradGradGradGradGradGradGradGradGradGradGradGradGradGradGradGradGrad
 Berny optimization.
 FormGI is forming the generalized inverse of G from B-inverse, IUseBI=4.
 GSVD:  received Info=                   1 from GESDD.
 Internal  Forces:  Max     0.043255312 RMS     0.007354676
 Search for a local minimum.
 Step number   1 out of a maximum of  157
 All quantities printed in internal units (Hartrees-Bohrs-Radians)
 RMS Force = .73547D-02 SwitMx=.10000D-02 MixMth= 1
 Mixed Optimization -- RFO/linear search
 Second derivative matrix not updated -- first step.
 ITU=  0
     Eigenvalues ---    0.00237   0.00237   0.00237   0.01459   0.01459
     Eigenvalues ---    0.01463   0.01463   0.01565   0.01565   0.02152
     Eigenvalues ---    0.02152   0.02153   0.02153   0.02154   0.02154
     Eigenvalues ---    0.02155   0.02155   0.02155   0.02155   0.02155
[...]

 Energy =  -1815.1304 cm^-1: |0> -> |67^1;5^1>
   -> Intensity =  402.1     (DipStr = 0.2586    )

 Energy =  -1732.0700 cm^-1: |0> -> |70^1>
   -> Intensity =  1288.     (DipStr = 0.8187    )

 Energy =  -1677.3569 cm^-1: |0> -> |67^1>
   -> Intensity =  603.1     (DipStr = 0.3799    )

 Energy =   -275.5470 cm^-1: |0> -> |5^2>
   -> Intensity =  478.9     (DipStr = 0.2461    )

 Energy =   -137.7735 cm^-1: |0> -> |5^1>
   -> Intensity =  1420.     (DipStr = 0.7156    )

 Energy =      0.0000 cm^-1: |0> -> |0>
   -> Intensity =  2112.     (DipStr =  1.044    )

     ==================================================
                       Final Spectrum
     ==================================================

 Band broadening simulated by mean of Gaussian functions with
 Half-Widths at Half-Maximum of  250.00 cm^(-1)
 
 Legend:
 -------
 1st col.: Energy (in cm^-1)
 2nd col.: Intensity at T=0K
 Intensity: Emitted intensity (in microJ.mol^-1)
 -----------------------------
    20511.3979    0.170675D+03
    20531.3979    0.171446D+03
    20551.3979    0.172137D+03
    20571.3979    0.172754D+03
    20591.3979    0.173298D+03
    20611.3979    0.173774D+03
    20631.3979    0.174189D+03
    20651.3979    0.174537D+03
    20671.3979    0.174826D+03
    20691.3979    0.175058D+03
    20711.3979    0.175236D+03
    20731.3979    0.175360D+03
    20751.3979    0.175437D+03
    20771.3979    0.175480D+03
    20791.3979    0.175490D+03
    20811.3979    0.175482D+03
    20831.3979    0.175475D+03
    20851.3979    0.175480D+03
    20871.3979    0.175524D+03
    20891.3979    0.175628D+03
    20911.3979    0.175821D+03
    20931.3979    0.176134D+03
    20951.3979    0.176605D+03
    20971.3979    0.177264D+03
    20991.3979    0.178154D+03
    21011.3979    0.179315D+03
    21031.3979    0.180786D+03
    21051.3979    0.182611D+03
    21071.3979    0.184829D+03
    21091.3979    0.187482D+03
    21111.3979    0.190601D+03
    21131.3979    0.194224D+03
    21151.3979    0.198380D+03
    21171.3979    0.203087D+03
    21191.3979    0.208365D+03
    21211.3979    0.214223D+03
    21231.3979    0.220664D+03
    21251.3979    0.227681D+03
    21271.3979    0.235261D+03
    21291.3979    0.243380D+03
    21311.3979    0.252005D+03
    21331.3979    0.261106D+03
    21351.3979    0.270629D+03
    21371.3979    0.280529D+03
    21391.3979    0.290745D+03
    21411.3979    0.301228D+03
    21431.3979    0.311913D+03
    21451.3979    0.322744D+03
    21471.3979    0.333667D+03
    21491.3979    0.344629D+03
    21511.3979    0.355586D+03
    21531.3979    0.366496D+03
    21551.3979    0.377327D+03
    21571.3979    0.388057D+03
    21591.3979    0.398669D+03
    21611.3979    0.409153D+03
    21631.3979    0.419507D+03
    21651.3979    0.429735D+03
    21671.3979    0.439841D+03
    21691.3979    0.449832D+03
    21711.3979    0.459714D+03
    21731.3979    0.469490D+03
    21751.3979    0.479158D+03
    21771.3979    0.488708D+03
    21791.3979    0.498129D+03
    21811.3979    0.507392D+03
    21831.3979    0.516466D+03
    21851.3979    0.525311D+03
    21871.3979    0.533878D+03
    21891.3979    0.542116D+03
    21911.3979    0.549965D+03
    21931.3979    0.557369D+03
    21951.3979    0.564271D+03
    21971.3979    0.570618D+03
    21991.3979    0.576363D+03
    22011.3979    0.581467D+03
    22031.3979    0.585903D+03
    22051.3979    0.589652D+03
    22071.3979    0.592708D+03
    22091.3979    0.595077D+03
    22111.3979    0.596777D+03
    22131.3979    0.597834D+03
    22151.3979    0.598285D+03
    22171.3979    0.598178D+03
    22191.3979    0.597557D+03
    22211.3979    0.596473D+03
    22231.3979    0.594987D+03
    22251.3979    0.593142D+03
    22271.3979    0.590992D+03
    22291.3979    0.588581D+03
    22311.3979    0.585965D+03
    22331.3979    0.583161D+03
    22351.3979    0.580208D+03
    22371.3979    0.577148D+03
    22391.3979    0.573984D+03
    22411.3979    0.570751D+03
    22431.3979    0.567458D+03
    22451.3979    0.564154D+03
    22471.3979    0.560833D+03
    22491.3979    0.557559D+03
    22511.3979    0.554324D+03
    22531.3979    0.551207D+03
    22551.3979    0.548261D+03
    22571.3979    0.545533D+03
    22591.3979    0.543120D+03
    22611.3979    0.541108D+03
    22631.3979    0.539605D+03
    22651.3979    0.538724D+03
    22671.3979    0.538600D+03
    22691.3979    0.539376D+03
    22711.3979    0.541196D+03
    22731.3979    0.544218D+03
    22751.3979    0.548602D+03
    22771.3979    0.554506D+03
    22791.3979    0.562080D+03
    22811.3979    0.571476D+03
    22831.3979    0.582841D+03
    22851.3979    0.596275D+03
    22871.3979    0.611884D+03
    22891.3979    0.629735D+03
    22911.3979    0.649874D+03
    22931.3979    0.672299D+03
    22951.3979    0.696987D+03
    22971.3979    0.723871D+03
    22991.3979    0.752843D+03
    23011.3979    0.783780D+03
    23031.3979    0.816468D+03
    23051.3979    0.850715D+03
    23071.3979    0.886257D+03
    23091.3979    0.922828D+03
    23111.3979    0.960139D+03
    23131.3979    0.997884D+03
    23151.3979    0.103576D+04
    23171.3979    0.107345D+04
    23191.3979    0.111070D+04
    23211.3979    0.114721D+04
    23231.3979    0.118277D+04
    23251.3979    0.121718D+04
    23271.3979    0.125028D+04
    23291.3979    0.128195D+04
    23311.3979    0.131213D+04
    23331.3979    0.134080D+04
    23351.3979    0.136797D+04
    23371.3979    0.139370D+04
    23391.3979    0.141805D+04
    23411.3979    0.144113D+04
    23431.3979    0.146302D+04
    23451.3979    0.148383D+04
    23471.3979    0.150364D+04
    23491.3979    0.152252D+04
    23511.3979    0.154050D+04
    23531.3979    0.155758D+04
    23551.3979    0.157374D+04
    23571.3979    0.158889D+04
    23591.3979    0.160294D+04
    23611.3979    0.161574D+04
    23631.3979    0.162714D+04
    23651.3979    0.163697D+04
    23671.3979    0.164503D+04
    23691.3979    0.165116D+04
    23711.3979    0.165519D+04
    23731.3979    0.165699D+04
    23751.3979    0.165645D+04
    23771.3979    0.165351D+04
    23791.3979    0.164814D+04
    23811.3979    0.164036D+04
    23831.3979    0.163024D+04
    23851.3979    0.161790D+04
    23871.3979    0.160349D+04
    23891.3979    0.158719D+04
    23911.3979    0.156924D+04
    23931.3979    0.154983D+04
    23951.3979    0.152925D+04
    23971.3979    0.150772D+04
    23991.3979    0.148549D+04
    24011.3979    0.146280D+04
    24031.3979    0.143992D+04
    24051.3979    0.141695D+04
    24071.3979    0.139414D+04
    24091.3979    0.137167D+04
    24111.3979    0.134961D+04
    24131.3979    0.132812D+04
    24151.3979    0.130729D+04
    24171.3979    0.128731D+04
    24191.3979    0.126810D+04
    24211.3979    0.124988D+04
    24231.3979    0.123274D+04
    24251.3979    0.121679D+04
    24271.3979    0.120216D+04
    24291.3979    0.118904D+04
    24311.3979    0.117763D+04
    24331.3979    0.116816D+04
    24351.3979    0.116091D+04
    24371.3979    0.115620D+04
    24391.3979    0.115437D+04
    24411.3979    0.115581D+04
    24431.3979    0.116094D+04
    24451.3979    0.117019D+04
    24471.3979    0.118396D+04
    24491.3979    0.120270D+04
    24511.3979    0.122684D+04
    24531.3979    0.125678D+04
    24551.3979    0.129285D+04
    24571.3979    0.133536D+04
    24591.3979    0.138455D+04
    24611.3979    0.144049D+04
    24631.3979    0.150321D+04
    24651.3979    0.157265D+04
    24671.3979    0.164858D+04
    24691.3979    0.173066D+04
    24711.3979    0.181838D+04
    24731.3979    0.191118D+04
    24751.3979    0.200822D+04
    24771.3979    0.210870D+04
    24791.3979    0.221163D+04
    24811.3979    0.231595D+04
    24831.3979    0.242054D+04
    24851.3979    0.252424D+04
    24871.3979    0.262594D+04
    24891.3979    0.272446D+04
    24911.3979    0.281879D+04
    24931.3979    0.290794D+04
    24951.3979    0.299108D+04
    24971.3979    0.306751D+04
    24991.3979    0.313671D+04
    25011.3979    0.319833D+04
    25031.3979    0.325221D+04
    25051.3979    0.329838D+04
    25071.3979    0.333701D+04
    25091.3979    0.336846D+04
    25111.3979    0.339320D+04
    25131.3979    0.341177D+04
    25151.3979    0.342484D+04
    25171.3979    0.343301D+04
    25191.3979    0.343695D+04
    25211.3979    0.343722D+04
    25231.3979    0.343435D+04
    25251.3979    0.342874D+04
    25271.3979    0.342070D+04
    25291.3979    0.341036D+04
    25311.3979    0.339776D+04
    25331.3979    0.338283D+04
    25351.3979    0.336535D+04
    25371.3979    0.334506D+04
    25391.3979    0.332161D+04
    25411.3979    0.329463D+04
    25431.3979    0.326375D+04
    25451.3979    0.322863D+04
    25471.3979    0.318899D+04
    25491.3979    0.314464D+04
    25511.3979    0.309546D+04
    25531.3979    0.304148D+04
    25551.3979    0.298284D+04
    25571.3979    0.291980D+04
    25591.3979    0.285273D+04
    25611.3979    0.278209D+04
    25631.3979    0.270853D+04
    25651.3979    0.263255D+04
    25671.3979    0.255493D+04
    25691.3979    0.247638D+04
    25711.3979    0.239758D+04
    25731.3979    0.231925D+04
    25751.3979    0.224204D+04
    25771.3979    0.216668D+04
    25791.3979    0.209362D+04
    25811.3979    0.202336D+04
    25831.3979    0.195639D+04
    25851.3979    0.189301D+04
    25871.3979    0.183355D+04
    25891.3979    0.177821D+04
    25911.3979    0.172742D+04
    25931.3979    0.168111D+04
    25951.3979    0.163951D+04
    25971.3979    0.160286D+04
    25991.3979    0.157130D+04
    26011.3979    0.154506D+04
    26031.3979    0.152437D+04
    26051.3979    0.150963D+04
    26071.3979    0.150121D+04
    26091.3979    0.149959D+04
    26111.3979    0.150529D+04
    26131.3979    0.151893D+04
    26151.3979    0.154117D+04
    26171.3979    0.157264D+04
    26191.3979    0.161415D+04
    26211.3979    0.166634D+04
    26231.3979    0.172993D+04
    26251.3979    0.180549D+04
    26271.3979    0.189357D+04
    26291.3979    0.199462D+04
    26311.3979    0.210874D+04
    26331.3979    0.223602D+04
    26351.3979    0.237624D+04
    26371.3979    0.252894D+04
    26391.3979    0.269330D+04
    26411.3979    0.286830D+04
    26431.3979    0.305259D+04
    26451.3979    0.324445D+04
    26471.3979    0.344198D+04
    26491.3979    0.364290D+04
    26511.3979    0.384476D+04
    26531.3979    0.404491D+04
    26551.3979    0.424063D+04
    26571.3979    0.442911D+04
    26591.3979    0.460755D+04
    26611.3979    0.477330D+04
    26631.3979    0.492386D+04
    26651.3979    0.505698D+04
    26671.3979    0.517077D+04
    26691.3979    0.526375D+04
    26711.3979    0.533486D+04
    26731.3979    0.538353D+04
    26751.3979    0.540967D+04
    26771.3979    0.541371D+04
    26791.3979    0.539650D+04
    26811.3979    0.535936D+04
    26831.3979    0.530396D+04
    26851.3979    0.523224D+04
    26871.3979    0.514641D+04
    26891.3979    0.504872D+04
    26911.3979    0.494150D+04
    26931.3979    0.482700D+04
    26951.3979    0.470733D+04
    26971.3979    0.458439D+04
    26991.3979    0.445980D+04
    27011.3979    0.433490D+04
    27031.3979    0.421069D+04
    27051.3979    0.408786D+04
    27071.3979    0.396675D+04
    27091.3979    0.384746D+04
    27111.3979    0.372981D+04
    27131.3979    0.361346D+04
    27151.3979    0.349796D+04
    27171.3979    0.338273D+04
    27191.3979    0.326724D+04
    27211.3979    0.315097D+04
    27231.3979    0.303350D+04
    27251.3979    0.291452D+04
    27271.3979    0.279388D+04
    27291.3979    0.267161D+04
    27311.3979    0.254789D+04
    27331.3979    0.242310D+04
    27351.3979    0.229774D+04
    27371.3979    0.217251D+04
    27391.3979    0.204813D+04
    27411.3979    0.192542D+04
    27431.3979    0.180522D+04
    27451.3979    0.168849D+04
    27471.3979    0.157606D+04
    27491.3979    0.146873D+04
    27511.3979    0.136742D+04
    27531.3979    0.127266D+04
    27551.3979    0.118499D+04
    27571.3979    0.110484D+04
    27591.3979    0.103274D+04
    27611.3979    0.968884D+03
    27631.3979    0.913409D+03
    27651.3979    0.866736D+03
    27671.3979    0.828646D+03
    27691.3979    0.799161D+03
    27711.3979    0.778203D+03
    27731.3979    0.766018D+03
    27751.3979    0.762505D+03
    27771.3979    0.767751D+03
    27791.3979    0.781830D+03
    27811.3979    0.804944D+03
    27831.3979    0.837290D+03
    27851.3979    0.879211D+03
    27871.3979    0.931011D+03
    27891.3979    0.993066D+03
    27911.3979    0.106590D+04
    27931.3979    0.114979D+04
    27951.3979    0.124521D+04
    27971.3979    0.135242D+04
    27991.3979    0.147164D+04
    28011.3979    0.160294D+04
    28031.3979    0.174615D+04
    28051.3979    0.190108D+04
    28071.3979    0.206708D+04
    28091.3979    0.224334D+04
    28111.3979    0.242858D+04
    28131.3979    0.262130D+04
    28151.3979    0.281966D+04
    28171.3979    0.302140D+04
    28191.3979    0.322412D+04
    28211.3979    0.342488D+04
    28231.3979    0.362087D+04
    28251.3979    0.380875D+04
    28271.3979    0.398523D+04
    28291.3979    0.414698D+04
    28311.3979    0.429076D+04
    28331.3979    0.441351D+04
    28351.3979    0.451238D+04
    28371.3979    0.458502D+04
    28391.3979    0.462940D+04
    28411.3979    0.464408D+04
    28431.3979    0.462822D+04
    28451.3979    0.458160D+04
    28471.3979    0.450466D+04
    28491.3979    0.439850D+04
    28511.3979    0.426486D+04
    28531.3979    0.410602D+04
    28551.3979    0.392478D+04
    28571.3979    0.372438D+04
    28591.3979    0.350833D+04
    28611.3979    0.328038D+04
    28631.3979    0.304435D+04
    28651.3979    0.280401D+04
    28671.3979    0.256303D+04
    28691.3979    0.232482D+04
    28711.3979    0.209248D+04
    28731.3979    0.186871D+04
    28751.3979    0.165579D+04
    28771.3979    0.145560D+04
    28791.3979    0.126946D+04
    28811.3979    0.109831D+04
    28831.3979    0.942608D+03
    28851.3979    0.802463D+03
    28871.3979    0.677623D+03
    28891.3979    0.567546D+03
    28911.3979    0.471465D+03
    28931.3979    0.388426D+03
    28951.3979    0.317388D+03
    28971.3979    0.257172D+03
    28991.3979    0.206670D+03
    29011.3979    0.164702D+03
    29031.3979    0.130152D+03
    29051.3979    0.101989D+03
    29071.3979    0.792321D+02
    29091.3979    0.610475D+02
    29111.3979    0.465450D+02
    29131.3979    0.352604D+02
    29151.3979    0.264871D+02
    29171.3979    0.197050D+02
    29191.3979    0.145489D+02
    29211.3979    0.106161D+02
    29231.3979    0.770207D+01
    29251.3979    0.526894D+01
    29271.3979    0.376018D+01
    29291.3979    0.266629D+01
    29311.3979    0.183889D+01
    29331.3979    0.128270D+01
    29351.3979    0.850056D+00
    29371.3979    0.578782D+00
    29391.3979    0.000000D+00
    29411.3979    0.000000D+00
    29431.3979    0.000000D+00
    29451.3979    0.000000D+00
    29471.3979    0.000000D+00
    29491.3979    0.000000D+00
    29511.3979    0.000000D+00
 -----------------------------

 Leave Link  718 at Fri Mar  8 17:20:06 2024, MaxMem= 34359738368 cpu:            1197.1 elap:              18.9
 (Enter /apps/gaussian/g16-c01-avx2/g16/l9999.exe)

 ----------------------------------------------------------------------

 Electric dipole moment (input orientation):
 (Debye = 10**-18 statcoulomb cm , SI units = C m)
                  (au)            (Debye)         (10**-30 SI)
   Tot        0.153335D-03      0.389738D-03      0.130003D-02
   x          0.000000D+00      0.000000D+00      0.000000D+00
   y         -0.977186D-04     -0.248376D-03     -0.828493D-03
   z         -0.118163D-03     -0.300341D-03     -0.100183D-02

 Dipole polarizability, Alpha (input orientation).
 (esu units = cm**3 , SI units = C**2 m**2 J**-1)
 Alpha(0;0):
               (au)            (10**-24 esu)      (10**-40 SI)
   iso        0.251272D+03      0.372346D+02      0.414291D+02
   aniso      0.316439D+03      0.468915D+02      0.521738D+02
   xx         0.270039D+03      0.400156D+02      0.445234D+02
   yx        -0.112727D+03     -0.167045D+02     -0.185862D+02
   yy         0.352012D+03      0.521628D+02      0.580390D+02
   zx        -0.727587D+02     -0.107817D+02     -0.119963D+02
   zy         0.546376D+02      0.809646D+01      0.900853D+01
   zz         0.131764D+03      0.195255D+02      0.217250D+02

 ----------------------------------------------------------------------

 Dipole orientation:
     6         -5.40551337         -1.27701274         -1.17563764
     6         -2.92327190         -1.54528315         -0.32512050
     6         -1.46010807         -3.48010800         -1.36942082
     6         -2.44967877         -5.08005254         -3.18090185
     6         -4.92490022         -4.79033645         -4.00206620
     6         -6.39920536         -2.87874545         -2.99077284
     1         -6.57034152          0.21401458         -0.39282394
     1          0.47661140         -3.73874177         -0.76736253
     1         -1.28149764         -6.56575922         -3.96446925
     1         -5.69284787         -6.04614675         -5.42195853
     1         -8.33111884         -2.63094532         -3.61648671
     6         -1.97882906          0.20065716          1.60126610
     1         -3.30592125          1.66237966          2.16549846
     6          0.28873266          0.17390570          2.71569365
     1          1.66800926         -1.26101700          2.21912943
     6          1.06242553          1.98394552          4.60843393
     1         -0.31688502          3.41879638          5.10513064
     6          3.32992380          1.95691389          5.72299702
     1          4.65665808          0.49473048          5.15913653
     6          4.27453749          3.70248028          7.64962164
     6          6.75411004          3.42852739          8.50613809
     6          2.81421049          5.64243442          8.68834645
     6          7.74777295          5.02933179         10.32209202
     1          7.91678154          1.93361381          7.72753133
     6          3.80375762          7.24146545         10.50065350
     1          0.87982898          5.90609157          8.08098608
     6          6.27619226          6.94583959         11.32805646
     1          9.67753623          4.77700371         10.95261111
     1          2.63780228          8.73125321         11.27977470
     1          7.04417238          8.20101150         12.74849535

 Electric dipole moment (dipole orientation):
 (Debye = 10**-18 statcoulomb cm , SI units = C m)
                  (au)            (Debye)         (10**-30 SI)
   Tot        0.153544D-03      0.390270D-03      0.130180D-02
   x          0.000000D+00      0.000000D+00      0.000000D+00
   y          0.000000D+00      0.000000D+00      0.000000D+00
   z          0.153544D-03      0.390270D-03      0.130180D-02

 Dipole polarizability, Alpha (dipole orientation).
 (esu units = cm**3 , SI units = C**2 m**2 J**-1)
 Alpha(0;0):
               (au)            (10**-24 esu)      (10**-40 SI)
   iso        0.251272D+03      0.372346D+02      0.414291D+02
   aniso      0.316439D+03      0.468915D+02      0.521738D+02
   xx         0.281609D+03      0.417301D+02      0.464310D+02
   yx         0.479959D+02      0.711226D+01      0.791346D+01
   yy         0.210674D+03      0.312187D+02      0.347355D+02
   zx         0.125259D+03      0.185614D+02      0.206524D+02
   zy         0.118523D+03      0.175633D+02      0.195418D+02
   zz         0.261532D+03      0.387551D+02      0.431209D+02

 ----------------------------------------------------------------------

 This type of calculation cannot be archived.


 HE WHO LAUGHS LAST PROBABLY DIDN'T GET THE JOKE.
 Job cpu time:       0 days  0 hours 20 minutes 21.9 seconds.
 Elapsed time:       0 days  0 hours  0 minutes 19.3 seconds.
 File lengths (MBytes):  RWF=      6 Int=      0 D2E=      0 Chk=     23 Scr=      1
 Normal termination of Gaussian 16 at Fri Mar  8 17:20:07 2024.
