 Entering Gaussian System, Link 0=g16
 Input=DPBg_linked.gjf
 Output=DPBg_linked.log
 Initial command:
 /apps/gaussian/g16-c01-avx2/g16/l1.exe "/var/tmp/pbs.9035210.pbs/Gau-1718896.inp" -scrdir="/var/tmp/pbs.9035210.pbs/"
 Entering Link 1 = /apps/gaussian/g16-c01-avx2/g16/l1.exe PID=   1718898.
  
 Copyright (c) 1988-2019, Gaussian, Inc.  All Rights Reserved.
  
 This is part of the Gaussian(R) 16 program.  It is based on
 the Gaussian(R) 09 system (copyright 2009, Gaussian, Inc.),
 the Gaussian(R) 03 system (copyright 2003, Gaussian, Inc.),
 the Gaussian(R) 98 system (copyright 1998, Gaussian, Inc.),
 the Gaussian(R) 94 system (copyright 1995, Gaussian, Inc.),
 the Gaussian 92(TM) system (copyright 1992, Gaussian, Inc.),
 the Gaussian 90(TM) system (copyright 1990, Gaussian, Inc.),
 the Gaussian 88(TM) system (copyright 1988, Gaussian, Inc.),
 the Gaussian 86(TM) system (copyright 1986, Carnegie Mellon
 University), and the Gaussian 82(TM) system (copyright 1983,
 Carnegie Mellon University). Gaussian is a federally registered
 trademark of Gaussian, Inc.
  
 This software contains proprietary and confidential information,
 including trade secrets, belonging to Gaussian, Inc.
  
 This software is provided under written license and may be
 used, copied, transmitted, or stored only in accord with that
 written license.
  
 The following legend is applicable only to US Government
 contracts under FAR:
  
                    RESTRICTED RIGHTS LEGEND
  
 Use, reproduction and disclosure by the US Government is
 subject to restrictions as set forth in subparagraphs (a)
 and (c) of the Commercial Computer Software - Restricted
 Rights clause in FAR 52.227-19.
  
 Gaussian, Inc.
 340 Quinnipiac St., Bldg. 40, Wallingford CT 06492
  
  
 ---------------------------------------------------------------
 Warning -- This program may not be used in any manner that
 competes with the business of Gaussian, Inc. or will provide
 assistance to any competitor of Gaussian, Inc.  The licensee
 of this program is prohibited from giving any competitor of
 Gaussian, Inc. access to this program.  By using this program,
 the user acknowledges that Gaussian, Inc. is engaged in the
 business of creating and licensing software in the field of
 computational chemistry and represents and warrants to the
 licensee that it is not a competitor of Gaussian, Inc. and that
 it will not use this program in any manner prohibited above.
 ---------------------------------------------------------------
  

 Cite this work as:
 Gaussian 16, Revision C.01,
 M. J. Frisch, G. W. Trucks, H. B. Schlegel, G. E. Scuseria, 
 M. A. Robb, J. R. Cheeseman, G. Scalmani, V. Barone, 
 G. A. Petersson, H. Nakatsuji, X. Li, M. Caricato, A. V. Marenich, 
 J. Bloino, B. G. Janesko, R. Gomperts, B. Mennucci, H. P. Hratchian, 
 J. V. Ortiz, A. F. Izmaylov, J. L. Sonnenberg, D. Williams-Young, 
 F. Ding, F. Lipparini, F. Egidi, J. Goings, B. Peng, A. Petrone, 
 T. Henderson, D. Ranasinghe, V. G. Zakrzewski, J. Gao, N. Rega, 
 G. Zheng, W. Liang, M. Hada, M. Ehara, K. Toyota, R. Fukuda, 
 J. Hasegawa, M. Ishida, T. Nakajima, Y. Honda, O. Kitao, H. Nakai, 
 T. Vreven, K. Throssell, J. A. Montgomery, Jr., J. E. Peralta, 
 F. Ogliaro, M. J. Bearpark, J. J. Heyd, E. N. Brothers, K. N. Kudin, 
 V. N. Staroverov, T. A. Keith, R. Kobayashi, J. Normand, 
 K. Raghavachari, A. P. Rendell, J. C. Burant, S. S. Iyengar, 
 J. Tomasi, M. Cossi, J. M. Millam, M. Klene, C. Adamo, R. Cammi, 
 J. W. Ochterski, R. L. Martin, K. Morokuma, O. Farkas, 
 J. B. Foresman, and D. J. Fox, Gaussian, Inc., Wallingford CT, 2019.
 
 ******************************************
 Gaussian 16:  ES64L-G16RevC.01  3-Jul-2019
                 4-Mar-2024 
 ******************************************
 %chk=DPB1.chk
 %NProcShared=32
 Will use up to   32 processors via shared memory.
 %Mem=110GB
 --------------------------------------------
 #p CAM-B3LYP/TZVP geom=connectivity Opt Freq
 --------------------------------------------
 1/18=20,19=15,26=3,38=1,57=2/1,3;
 2/9=110,12=2,17=6,18=5,40=1/2;
 3/5=19,7=101,11=2,25=1,30=1,71=1,74=-40/1,2,3;
 4//1;
 5/5=2,38=5/2;
 6/7=2,8=2,9=2,10=2,28=1/1;
 7//1,2,3,16;
 1/18=20,19=15,26=3/3(2);
 2/9=110/2;
 99//99;
 2/9=110/2;
 3/5=19,7=101,11=2,25=1,30=1,71=1,74=-40/1,2,3;
 4/5=5,16=3,69=1/1;
 5/5=2,38=5/2;
 7//1,2,3,16;
 1/18=20,19=15,26=3/3(-5);
 2/9=110/2;
 6/7=2,8=2,9=2,10=2,19=2,28=1/1;
 99/9=1/99;
 Leave Link    1 at Mon Mar  4 16:11:29 2024, MaxMem= 14763950080 cpu:               0.5 elap:               0.0
 (Enter /apps/gaussian/g16-c01-avx2/g16/l101.exe)
 ----------------------------------------------------------------------
 Ground state calculation for DPB molecule, later to be used for excite
 d state and FC-HT analysis.
 ----------------------------------------------------------------------
 Symbolic Z-matrix:
 Charge =  0 Multiplicity = 1
 C                    -2.62766   0.91489   0. 
 C                    -1.2325    0.91489   0. 
 C                    -0.53496   2.12264   0. 
 C                    -1.23262   3.33115  -0.0012 
 C                    -2.62744   3.33108  -0.00168 
 C                    -3.32504   2.12287  -0.00068 
 H                    -3.17742  -0.03742   0.00045 
 H                     0.56472   2.12272   0.00063 
 H                    -0.68242   4.2833   -0.00126 
 H                    -3.17756   4.28336  -0.00263 
 H                    -4.42465   2.12305  -0.00086 
 C                    -0.46295  -0.41904   0.00184 
 H                    -0.19832  -0.88062   0.93018 
 C                    -0.11975  -1.0103   -1.16828 
 H                    -0.38161  -0.5535   -2.09977 
 C                     0.64977  -2.34421  -1.15729 
 H                     0.91163  -2.80101  -0.22581 
 C                     0.99643  -2.94148  -2.32334 
 H                     0.73735  -2.48948  -3.25793 
 C                     1.7659   -4.27532  -2.3032 
 C                     3.16102  -4.27568  -2.2927 
 C                     1.06813  -5.48305  -2.29534 
 C                     3.85813  -5.48355  -2.27503 
 H                     3.71084  -3.32337  -2.29968 
 C                     1.76529  -6.69136  -2.27667 
 H                    -0.03145  -5.48294  -2.30343 
 C                     3.16008  -6.6918   -2.26665 
 H                     4.95778  -5.48392  -2.26739 
 H                     1.21486  -7.64344  -2.27006 
 H                     3.70995  -7.64403  -2.25266 
 
 ITRead=  0  0  0  0  0  0  0  0  0  0  0  0  0  0  0  0  0  0  0  0
 ITRead=  0  0  0  0  0  0  0  0  0  0
 MicOpt= -1 -1 -1 -1 -1 -1 -1 -1 -1 -1 -1 -1 -1 -1 -1 -1 -1 -1 -1 -1
 MicOpt= -1 -1 -1 -1 -1 -1 -1 -1 -1 -1
 NAtoms=     30 NQM=       30 NQMF=       0 NMMI=      0 NMMIF=      0
                NMic=       0 NMicF=      0.
                    Isotopes and Nuclear Properties:
 (Nuclear quadrupole moments (NQMom) in fm**2, nuclear magnetic moments (NMagM)
  in nuclear magnetons)

  Atom         1           2           3           4           5           6           7           8           9          10
 IAtWgt=          12          12          12          12          12          12           1           1           1           1
 AtmWgt=  12.0000000  12.0000000  12.0000000  12.0000000  12.0000000  12.0000000   1.0078250   1.0078250   1.0078250   1.0078250
 NucSpn=           0           0           0           0           0           0           1           1           1           1
 AtZEff=  -0.0000000  -0.0000000  -0.0000000  -0.0000000  -0.0000000  -0.0000000  -0.0000000  -0.0000000  -0.0000000  -0.0000000
 NQMom=    0.0000000   0.0000000   0.0000000   0.0000000   0.0000000   0.0000000   0.0000000   0.0000000   0.0000000   0.0000000
 NMagM=    0.0000000   0.0000000   0.0000000   0.0000000   0.0000000   0.0000000   2.7928460   2.7928460   2.7928460   2.7928460
 AtZNuc=   6.0000000   6.0000000   6.0000000   6.0000000   6.0000000   6.0000000   1.0000000   1.0000000   1.0000000   1.0000000

  Atom        11          12          13          14          15          16          17          18          19          20
 IAtWgt=           1          12           1          12           1          12           1          12           1          12
 AtmWgt=   1.0078250  12.0000000   1.0078250  12.0000000   1.0078250  12.0000000   1.0078250  12.0000000   1.0078250  12.0000000
 NucSpn=           1           0           1           0           1           0           1           0           1           0
 AtZEff=  -0.0000000  -0.0000000  -0.0000000  -0.0000000  -0.0000000  -0.0000000  -0.0000000  -0.0000000  -0.0000000  -0.0000000
 NQMom=    0.0000000   0.0000000   0.0000000   0.0000000   0.0000000   0.0000000   0.0000000   0.0000000   0.0000000   0.0000000
 NMagM=    2.7928460   0.0000000   2.7928460   0.0000000   2.7928460   0.0000000   2.7928460   0.0000000   2.7928460   0.0000000
 AtZNuc=   1.0000000   6.0000000   1.0000000   6.0000000   1.0000000   6.0000000   1.0000000   6.0000000   1.0000000   6.0000000

  Atom        21          22          23          24          25          26          27          28          29          30
 IAtWgt=          12          12          12           1          12           1          12           1           1           1
 AtmWgt=  12.0000000  12.0000000  12.0000000   1.0078250  12.0000000   1.0078250  12.0000000   1.0078250   1.0078250   1.0078250
 NucSpn=           0           0           0           1           0           1           0           1           1           1
 AtZEff=  -0.0000000  -0.0000000  -0.0000000  -0.0000000  -0.0000000  -0.0000000  -0.0000000  -0.0000000  -0.0000000  -0.0000000
 NQMom=    0.0000000   0.0000000   0.0000000   0.0000000   0.0000000   0.0000000   0.0000000   0.0000000   0.0000000   0.0000000
 NMagM=    0.0000000   0.0000000   0.0000000   2.7928460   0.0000000   2.7928460   0.0000000   2.7928460   2.7928460   2.7928460
 AtZNuc=   6.0000000   6.0000000   6.0000000   1.0000000   6.0000000   1.0000000   6.0000000   1.0000000   1.0000000   1.0000000
 Leave Link  101 at Mon Mar  4 16:11:29 2024, MaxMem= 14763950080 cpu:               4.9 elap:               0.2
 (Enter /apps/gaussian/g16-c01-avx2/g16/l103.exe)

 GradGradGradGradGradGradGradGradGradGradGradGradGradGradGradGradGradGrad
 Berny optimization.
 Initialization pass.
                           ----------------------------
                           !    Initial Parameters    !
                           ! (Angstroms and Degrees)  !
 --------------------------                            --------------------------
 ! Name  Definition              Value          Derivative Info.                !
 --------------------------------------------------------------------------------
 ! R1    R(1,2)                  1.3952         estimate D2E/DX2                !
 ! R2    R(1,6)                  1.3948         estimate D2E/DX2                !
 ! R3    R(1,7)                  1.0996         estimate D2E/DX2                !
 ! R4    R(2,3)                  1.3947         estimate D2E/DX2                !
 ! R5    R(2,12)                 1.54           estimate D2E/DX2                !
 ! R6    R(3,4)                  1.3954         estimate D2E/DX2                !
 ! R7    R(3,8)                  1.0997         estimate D2E/DX2                !
 ! R8    R(4,5)                  1.3948         estimate D2E/DX2                !
 ! R9    R(4,9)                  1.0997         estimate D2E/DX2                !
 ! R10   R(5,6)                  1.3951         estimate D2E/DX2                !
 ! R11   R(5,10)                 1.0998         estimate D2E/DX2                !
 ! R12   R(6,11)                 1.0996         estimate D2E/DX2                !
 ! R13   R(12,13)                1.07           estimate D2E/DX2                !
 ! R14   R(12,14)                1.3552         estimate D2E/DX2                !
 ! R15   R(14,15)                1.07           estimate D2E/DX2                !
 ! R16   R(14,16)                1.54           estimate D2E/DX2                !
 ! R17   R(16,17)                1.07           estimate D2E/DX2                !
 ! R18   R(16,18)                1.3552         estimate D2E/DX2                !
 ! R19   R(18,19)                1.07           estimate D2E/DX2                !
 ! R20   R(18,20)                1.54           estimate D2E/DX2                !
 ! R21   R(20,21)                1.3952         estimate D2E/DX2                !
 ! R22   R(20,22)                1.3948         estimate D2E/DX2                !
 ! R23   R(21,23)                1.3947         estimate D2E/DX2                !
 ! R24   R(21,24)                1.0997         estimate D2E/DX2                !
 ! R25   R(22,25)                1.3951         estimate D2E/DX2                !
 ! R26   R(22,26)                1.0996         estimate D2E/DX2                !
 ! R27   R(23,27)                1.3954         estimate D2E/DX2                !
 ! R28   R(23,28)                1.0997         estimate D2E/DX2                !
 ! R29   R(25,27)                1.3948         estimate D2E/DX2                !
 ! R30   R(25,29)                1.0998         estimate D2E/DX2                !
 ! R31   R(27,30)                1.0997         estimate D2E/DX2                !
 ! A1    A(2,1,6)              119.9985         estimate D2E/DX2                !
 ! A2    A(2,1,7)              119.9972         estimate D2E/DX2                !
 ! A3    A(6,1,7)              120.0043         estimate D2E/DX2                !
 ! A4    A(1,2,3)              120.0086         estimate D2E/DX2                !
 ! A5    A(1,2,12)             119.9808         estimate D2E/DX2                !
 ! A6    A(3,2,12)             120.0106         estimate D2E/DX2                !
 ! A7    A(2,3,4)              119.9942         estimate D2E/DX2                !
 ! A8    A(2,3,8)              120.0128         estimate D2E/DX2                !
 ! A9    A(4,3,8)              119.993          estimate D2E/DX2                !
 ! A10   A(3,4,5)              119.994          estimate D2E/DX2                !
 ! A11   A(3,4,9)              119.9811         estimate D2E/DX2                !
 ! A12   A(5,4,9)              120.0249         estimate D2E/DX2                !
 ! A13   A(4,5,6)              120.0047         estimate D2E/DX2                !
 ! A14   A(4,5,10)             120.0113         estimate D2E/DX2                !
 ! A15   A(6,5,10)             119.984          estimate D2E/DX2                !
 ! A16   A(1,6,5)              120.0            estimate D2E/DX2                !
 ! A17   A(1,6,11)             120.008          estimate D2E/DX2                !
 ! A18   A(5,6,11)             119.992          estimate D2E/DX2                !
 ! A19   A(2,12,13)            119.8865         estimate D2E/DX2                !
 ! A20   A(2,12,14)            120.2269         estimate D2E/DX2                !
 ! A21   A(13,12,14)           119.8865         estimate D2E/DX2                !
 ! A22   A(12,14,15)           120.2269         estimate D2E/DX2                !
 ! A23   A(12,14,16)           119.8865         estimate D2E/DX2                !
 ! A24   A(15,14,16)           119.8865         estimate D2E/DX2                !
 ! A25   A(14,16,17)           119.8865         estimate D2E/DX2                !
 ! A26   A(14,16,18)           120.2269         estimate D2E/DX2                !
 ! A27   A(17,16,18)           119.8865         estimate D2E/DX2                !
 ! A28   A(16,18,19)           120.2269         estimate D2E/DX2                !
 ! A29   A(16,18,20)           119.8865         estimate D2E/DX2                !
 ! A30   A(19,18,20)           119.8865         estimate D2E/DX2                !
 ! A31   A(18,20,21)           119.9972         estimate D2E/DX2                !
 ! A32   A(18,20,22)           120.0043         estimate D2E/DX2                !
 ! A33   A(21,20,22)           119.9985         estimate D2E/DX2                !
 ! A34   A(20,21,23)           120.0086         estimate D2E/DX2                !
 ! A35   A(20,21,24)           119.9808         estimate D2E/DX2                !
 ! A36   A(23,21,24)           120.0106         estimate D2E/DX2                !
 ! A37   A(20,22,25)           120.0            estimate D2E/DX2                !
 ! A38   A(20,22,26)           120.008          estimate D2E/DX2                !
 ! A39   A(25,22,26)           119.992          estimate D2E/DX2                !
 ! A40   A(21,23,27)           119.9942         estimate D2E/DX2                !
 ! A41   A(21,23,28)           120.0128         estimate D2E/DX2                !
 ! A42   A(27,23,28)           119.993          estimate D2E/DX2                !
 ! A43   A(22,25,27)           120.0047         estimate D2E/DX2                !
 ! A44   A(22,25,29)           119.984          estimate D2E/DX2                !
 ! A45   A(27,25,29)           120.0113         estimate D2E/DX2                !
 ! A46   A(23,27,25)           119.994          estimate D2E/DX2                !
 ! A47   A(23,27,30)           119.9811         estimate D2E/DX2                !
 ! A48   A(25,27,30)           120.0249         estimate D2E/DX2                !
 ! D1    D(6,1,2,3)              0.0323         estimate D2E/DX2                !
 ! D2    D(6,1,2,12)           179.9532         estimate D2E/DX2                !
 ! D3    D(7,1,2,3)           -179.9729         estimate D2E/DX2                !
 ! D4    D(7,1,2,12)            -0.052          estimate D2E/DX2                !
 ! D5    D(2,1,6,5)              0.0149         estimate D2E/DX2                !
 ! D6    D(2,1,6,11)           179.9892         estimate D2E/DX2                !
 ! D7    D(7,1,6,5)           -179.9798         estimate D2E/DX2                !
 ! D8    D(7,1,6,11)            -0.0056         estimate D2E/DX2                !
 ! D9    D(1,2,3,4)             -0.0568         estimate D2E/DX2                !
 ! D10   D(1,2,3,8)            179.9619         estimate D2E/DX2                !
 ! D11   D(12,2,3,4)          -179.9777         estimate D2E/DX2                !
 ! D12   D(12,2,3,8)             0.041          estimate D2E/DX2                !
 ! D13   D(1,2,12,13)          -89.8714         estimate D2E/DX2                !
 ! D14   D(1,2,12,14)           90.1286         estimate D2E/DX2                !
 ! D15   D(3,2,12,13)           90.0495         estimate D2E/DX2                !
 ! D16   D(3,2,12,14)          -89.9505         estimate D2E/DX2                !
 ! D17   D(2,3,4,5)              0.0341         estimate D2E/DX2                !
 ! D18   D(2,3,4,9)           -179.9964         estimate D2E/DX2                !
 ! D19   D(8,3,4,5)           -179.9846         estimate D2E/DX2                !
 ! D20   D(8,3,4,9)             -0.0151         estimate D2E/DX2                !
 ! D21   D(3,4,5,6)              0.0131         estimate D2E/DX2                !
 ! D22   D(3,4,5,10)          -179.9995         estimate D2E/DX2                !
 ! D23   D(9,4,5,6)           -179.9563         estimate D2E/DX2                !
 ! D24   D(9,4,5,10)             0.0311         estimate D2E/DX2                !
 ! D25   D(4,5,6,1)             -0.0376         estimate D2E/DX2                !
 ! D26   D(4,5,6,11)           179.9881         estimate D2E/DX2                !
 ! D27   D(10,5,6,1)           179.975          estimate D2E/DX2                !
 ! D28   D(10,5,6,11)            0.0007         estimate D2E/DX2                !
 ! D29   D(2,12,14,15)           0.0            estimate D2E/DX2                !
 ! D30   D(2,12,14,16)         180.0            estimate D2E/DX2                !
 ! D31   D(13,12,14,15)        180.0            estimate D2E/DX2                !
 ! D32   D(13,12,14,16)          0.0            estimate D2E/DX2                !
 ! D33   D(12,14,16,17)          0.0            estimate D2E/DX2                !
 ! D34   D(12,14,16,18)       -180.0            estimate D2E/DX2                !
 ! D35   D(15,14,16,17)        180.0            estimate D2E/DX2                !
 ! D36   D(15,14,16,18)          0.0            estimate D2E/DX2                !
 ! D37   D(14,16,18,19)          0.0            estimate D2E/DX2                !
 ! D38   D(14,16,18,20)        180.0            estimate D2E/DX2                !
 ! D39   D(17,16,18,19)       -180.0            estimate D2E/DX2                !
 ! D40   D(17,16,18,20)          0.0            estimate D2E/DX2                !
 ! D41   D(16,18,20,21)        -90.0239         estimate D2E/DX2                !
 ! D42   D(16,18,20,22)         89.9708         estimate D2E/DX2                !
 ! D43   D(19,18,20,21)         89.9761         estimate D2E/DX2                !
 ! D44   D(19,18,20,22)        -90.0292         estimate D2E/DX2                !
 ! D45   D(18,20,21,23)       -179.9729         estimate D2E/DX2                !
 ! D46   D(18,20,21,24)         -0.052          estimate D2E/DX2                !
 ! D47   D(22,20,21,23)          0.0323         estimate D2E/DX2                !
 ! D48   D(22,20,21,24)        179.9532         estimate D2E/DX2                !
 ! D49   D(18,20,22,25)       -179.9798         estimate D2E/DX2                !
 ! D50   D(18,20,22,26)         -0.0056         estimate D2E/DX2                !
 ! D51   D(21,20,22,25)          0.0149         estimate D2E/DX2                !
 ! D52   D(21,20,22,26)        179.9892         estimate D2E/DX2                !
 ! D53   D(20,21,23,27)         -0.0568         estimate D2E/DX2                !
 ! D54   D(20,21,23,28)        179.9619         estimate D2E/DX2                !
 ! D55   D(24,21,23,27)       -179.9777         estimate D2E/DX2                !
 ! D56   D(24,21,23,28)          0.041          estimate D2E/DX2                !
 ! D57   D(20,22,25,27)         -0.0376         estimate D2E/DX2                !
 ! D58   D(20,22,25,29)        179.975          estimate D2E/DX2                !
 ! D59   D(26,22,25,27)        179.9881         estimate D2E/DX2                !
 ! D60   D(26,22,25,29)          0.0007         estimate D2E/DX2                !
 ! D61   D(21,23,27,25)          0.0341         estimate D2E/DX2                !
 ! D62   D(21,23,27,30)       -179.9964         estimate D2E/DX2                !
 ! D63   D(28,23,27,25)       -179.9846         estimate D2E/DX2                !
 ! D64   D(28,23,27,30)         -0.0151         estimate D2E/DX2                !
 ! D65   D(22,25,27,23)          0.0131         estimate D2E/DX2                !
 ! D66   D(22,25,27,30)       -179.9563         estimate D2E/DX2                !
 ! D67   D(29,25,27,23)       -179.9995         estimate D2E/DX2                !
 ! D68   D(29,25,27,30)          0.031          estimate D2E/DX2                !
 --------------------------------------------------------------------------------
 Trust Radius=3.00D-01 FncErr=1.00D-07 GrdErr=1.00D-06 EigMax=2.50D+02 EigMin=1.00D-04
 Number of steps in this run=    157 maximum allowed number of steps=    180.
 GradGradGradGradGradGradGradGradGradGradGradGradGradGradGradGradGradGrad

 Leave Link  103 at Mon Mar  4 16:11:30 2024, MaxMem= 14763950080 cpu:               0.3 elap:               0.0
 (Enter /apps/gaussian/g16-c01-avx2/g16/l202.exe)
                          Input orientation:                          
 ---------------------------------------------------------------------
 Center     Atomic      Atomic             Coordinates (Angstroms)
 Number     Number       Type             X           Y           Z
 ---------------------------------------------------------------------
      1          6           0       -2.627660    0.914894    0.000000
      2          6           0       -1.232500    0.914894    0.000000
      3          6           0       -0.534962    2.122645    0.000000
      4          6           0       -1.232616    3.331154   -0.001199
      5          6           0       -2.627441    3.331076   -0.001678
      6          6           0       -3.325042    2.122870   -0.000682
      7          1           0       -3.177419   -0.037423    0.000450
      8          1           0        0.564718    2.122725    0.000634
      9          1           0       -0.682416    4.283297   -0.001258
     10          1           0       -3.177563    4.283357   -0.002631
     11          1           0       -4.424646    2.123053   -0.000862
     12          6           0       -0.462947   -0.419043    0.001842
     13          1           0       -0.198323   -0.880624    0.930182
     14          6           0       -0.119748   -1.010300   -1.168285
     15          1           0       -0.381607   -0.553502   -2.099770
     16          6           0        0.649773   -2.344211   -1.157294
     17          1           0        0.911632   -2.801009   -0.225808
     18          6           0        0.996434   -2.941483   -2.323337
     19          1           0        0.737350   -2.489484   -3.257935
     20          6           0        1.765897   -4.275320   -2.303197
     21          6           0        3.161017   -4.275679   -2.292701
     22          6           0        1.068125   -5.483046   -2.295336
     23          6           0        3.858131   -5.483546   -2.275031
     24          1           0        3.710838   -3.323372   -2.299680
     25          6           0        1.765295   -6.691357   -2.276665
     26          1           0       -0.031449   -5.482944   -2.303427
     27          6           0        3.160084   -6.691799   -2.266650
     28          1           0        4.957785   -5.483915   -2.267391
     29          1           0        1.214862   -7.643436   -2.270056
     30          1           0        3.709949   -7.644032   -2.252659
 ---------------------------------------------------------------------
                    Distance matrix (angstroms):
                    1          2          3          4          5
     1  C    0.000000
     2  C    1.395160   0.000000
     3  C    2.416205   1.394712   0.000000
     4  C    2.790065   2.416260   1.395427   0.000000
     5  C    2.416183   2.789946   2.416356   1.394825   0.000000
     6  C    1.394829   2.416183   2.790080   2.416236   1.395138
     7  H    1.099610   2.165553   3.412986   3.889675   3.413102
     8  H    3.413229   2.165375   1.099680   2.165806   3.413209
     9  H    3.889745   3.413024   2.165678   1.099680   2.165606
    10  H    3.413055   3.889707   3.413506   2.165528   1.099761
    11  H    2.165365   3.413128   3.889684   3.412999   2.165471
    12  C    2.542709   1.540000   2.542708   3.828364   4.329946
    13  H    3.160822   2.271265   3.161991   4.435798   4.950494
    14  C    3.370591   2.511867   3.369367   4.631283   5.147527
    15  H    3.407341   2.699859   3.405042   4.496528   4.953353
    16  C    4.764730   3.937517   4.764002   6.090131   6.654656
    17  H    5.136682   4.296070   5.136729   6.500128   7.083624
    18  C    5.779584   5.023712   5.778275   7.050316   7.607073
    19  H    5.790269   5.107273   5.788320   6.954633   7.470203
    20  C    7.179580   6.421325   7.178622   8.494040   9.080510
    21  C    8.106004   7.176456   7.736620   9.078485   9.829433
    22  C    7.736991   7.176007   8.104627   9.393965   9.828876
    23  C    9.390489   8.487068   9.073542  10.430002  11.177134
    24  H    7.964168   6.905650   7.278354   8.602526   9.472922
    25  C    9.073935   8.486756   9.389409  10.705883  11.176799
    26  H    7.278627   6.905116   7.962680   9.188654   9.472284
    27  C    9.823311   9.071618   9.822702  11.175314  11.793369
    28  H   10.179626   9.187243   9.652517  11.007367  11.847918
    29  H    9.652105   9.186280  10.177985  11.470810  11.846887
    30  H   10.885539  10.136937  10.884931  12.245518  12.871768
                    6          7          8          9         10
     6  C    0.000000
     7  H    2.165331   0.000000
     8  H    3.889760   4.320860   0.000000
     9  H    3.413344   4.989355   2.494678   0.000000
    10  H    2.165516   4.320781   4.321228   2.495147   0.000000
    11  H    1.099604   2.494641   4.989364   4.320988   2.494420
    12  C    3.827912   2.741166   2.741656   4.707459   5.429707
    13  H    4.434394   3.232708   3.235181   5.269536   6.034294
    14  C    4.631842   3.414935   3.413314   5.449836   6.223486
    15  H    4.498104   3.534660   3.531206   5.280990   5.967459
    16  C    6.090296   4.616171   4.615359   6.858206   7.739922
    17  H    6.499589   4.940539   4.941131   7.264902   8.182882
    18  C    7.051067   5.590581   5.588687   7.772260   8.660614
    19  H    6.956042   5.652883   5.649827   7.648022   8.473188
    20  C    8.494472   6.906731   6.905465   9.194731  10.147972
    21  C    9.394878   7.962231   7.275969   9.658093  10.893994
    22  C    9.078287   7.276681   7.960694  10.183744  10.893346
    23  C   10.706456   9.183519   8.595381  11.008080  12.249783
    24  H    9.189698   7.970956   6.696975   9.079913  10.516122
    25  C   10.429871   8.595958   9.182348  11.472218  12.249384
    26  H    8.602255   6.697661   7.969335  10.055008  10.515337
    27  C   11.175412   9.464903   9.464266  11.846920  12.874222
    28  H   11.471982  10.049324   9.072152  11.504158  12.911724
    29  H   11.006431   9.071866  10.047717  12.287964  12.910577
    30  H   12.245606  10.505847  10.505206  12.908247  13.955753
                   11         12         13         14         15
    11  H    0.000000
    12  C    4.707155   0.000000
    13  H    5.267895   1.070000   0.000000
    14  C    5.450956   1.355200   2.103938   0.000000
    15  H    5.283514   2.107479   3.053066   1.070000   0.000000
    16  C    6.858826   2.507591   2.686802   1.540000   2.271265
    17  H    7.264492   2.759539   2.501238   2.271265   3.199295
    18  C    7.773771   3.728131   4.032366   2.511867   2.766123
    19  H    7.650504   4.043956   4.583038   2.699859   2.518221
    20  C    9.195800   5.015160   5.082997   3.937517   4.301754
    21  C   10.185214   5.768162   5.761818   4.763448   5.142180
    22  C    9.658565   5.767611   5.761089   4.763060   5.142020
    23  C   11.473298   7.035983   6.922074   6.087556   6.504724
    24  H   10.056550   5.581453   5.628549   4.615598   4.945731
    25  C   11.008563   7.035523   6.921292   6.087389   6.504902
    26  H    9.080373   5.580641   5.627204   4.615288   4.946058
    27  C   11.847511   7.590776   7.434271   6.651551   7.088731
    28  H   12.289553   7.758008   7.615787   6.855845   7.269538
    29  H   11.503808   7.756831   7.614082   6.855186   7.269449
    30  H   12.908841   8.642703   8.434972   7.736204   8.187785
                   16         17         18         19         20
    16  C    0.000000
    17  H    1.070000   0.000000
    18  C    1.355200   2.103938   0.000000
    19  H    2.107479   3.053066   1.070000   0.000000
    20  C    2.507591   2.686802   1.540000   2.271265   0.000000
    21  C    3.365423   3.392114   2.542919   3.161698   1.395160
    22  C    3.364884   3.391277   2.542728   3.161870   1.394829
    23  C    4.625833   4.480757   3.828019   4.435063   2.416205
    24  H    3.410854   3.522693   2.741238   3.233459   2.165414
    25  C    4.625480   4.479907   3.828169   4.435685   2.416183
    26  H    3.410181   3.521175   2.741526   3.234647   2.165365
    27  C    5.141387   4.935465   4.330065   4.950933   2.790065
    28  H    5.445092   5.266631   4.707376   5.268763   3.413229
    29  H    5.444204   5.264979   4.707326   5.269454   3.413055
    30  H    6.217123   5.949250   5.429745   6.034592   3.889745
                   21         22         23         24         25
    21  C    0.000000
    22  C    2.416183   0.000000
    23  C    1.394712   2.790080   0.000000
    24  H    1.099655   3.412938   2.165330   0.000000
    25  C    2.789946   1.395138   2.416356   3.889601   0.000000
    26  H    3.413128   1.099604   3.889684   4.320704   2.165471
    27  C    2.416260   2.416236   1.395427   3.413316   1.394825
    28  H    2.165375   3.889760   1.099680   2.494768   3.413209
    29  H    3.889707   2.165516   3.413506   4.989362   1.099761
    30  H    3.413024   3.413344   2.165678   4.320917   2.165606
                   26         27         28         29         30
    26  H    0.000000
    27  C    3.412999   0.000000
    28  H    4.989364   2.165806   0.000000
    29  H    2.494420   2.165528   4.321228   0.000000
    30  H    4.320988   1.099680   2.494678   2.495147   0.000000
 Stoichiometry    C16H14
 Framework group  C1[X(C16H14)]
 Deg. of freedom    84
 Full point group                 C1      NOp   1
 Largest Abelian subgroup         C1      NOp   1
 Largest concise Abelian subgroup C1      NOp   1
                         Standard orientation:                         
 ---------------------------------------------------------------------
 Center     Atomic      Atomic             Coordinates (Angstroms)
 Number     Number       Type             X           Y           Z
 ---------------------------------------------------------------------
      1          6           0       -3.862908    1.208268   -0.208444
      2          6           0       -3.186355    0.000108   -0.379024
      3          6           0       -3.862134   -1.207937   -0.208229
      4          6           0       -5.214825   -1.208174    0.134474
      5          6           0       -5.891033   -0.000265    0.305460
      6          6           0       -5.215146    1.208062    0.133611
      7          1           0       -3.330041    2.160598   -0.343584
      8          1           0       -3.329090   -2.160262   -0.343279
      9          1           0       -5.747428   -2.160799    0.269144
     10          1           0       -6.957110   -0.000118    0.575558
     11          1           0       -5.748485    2.160189    0.268268
     12          6           0       -1.693647    0.000810   -0.757735
     13          1           0       -1.404994    0.002341   -1.788063
     14          6           0       -0.744400   -0.000505    0.209476
     15          1           0       -1.026927   -0.002038    1.241501
     16          6           0        0.746032    0.000209   -0.178097
     17          1           0        1.028558    0.001742   -1.210122
     18          6           0        1.701008   -0.001097    0.783457
     19          1           0        1.424619   -0.002631    1.817143
     20          6           0        3.189111   -0.000370    0.387036
     21          6           0        3.863377   -1.208317    0.206208
     22          6           0        3.862832    1.207864    0.208653
     23          6           0        5.211235   -1.207937   -0.152262
     24          1           0        3.332146   -2.160695    0.347668
     25          6           0        5.210845    1.208418   -0.150889
     26          1           0        3.331511    2.160007    0.350959
     27          6           0        5.885137    0.000799   -0.331228
     28          1           0        5.742929   -2.160015   -0.294197
     29          1           0        5.741678    2.161212   -0.291869
     30          1           0        6.947859    0.000849   -0.613926
 ---------------------------------------------------------------------
 Rotational constants (GHZ):           2.3725871           0.1445710           0.1389087
 Leave Link  202 at Mon Mar  4 16:11:30 2024, MaxMem= 14763950080 cpu:               0.6 elap:               0.0
 (Enter /apps/gaussian/g16-c01-avx2/g16/l301.exe)
 Standard basis: TZVP (5D, 7F)
 Ernie: Thresh=  0.10000D-02 Tol=  0.10000D-05 Strict=F.
 There are   404 symmetry adapted cartesian basis functions of A   symmetry.
 There are   388 symmetry adapted basis functions of A   symmetry.
   388 basis functions,   672 primitive gaussians,   404 cartesian basis functions
    55 alpha electrons       55 beta electrons
       nuclear repulsion energy       863.2556719349 Hartrees.
 IExCor=20419 DFT=T Ex+Corr=CAM-B3LYP ExCW=0 ScaHFX=  1.000000
 ScaDFX=  1.000000  1.000000  1.000000  0.810000 ScalE2=  1.000000  1.000000
 IRadAn=      5 IRanWt=     -1 IRanGd=            0 ICorTp=0 IEmpDi=  4
 HFx  wShort=  0.000000 wLong=  0.330000 cFull=  0.190000 cShort=  0.000000 cLong=  0.460000
 DFx  wShort=  0.000000 wLong=  0.330000 cFull=  0.190000 cShort=  0.000000 cLong=  0.460000
 NAtoms=   30 NActive=   30 NUniq=   30 SFac= 1.00D+00 NAtFMM=   60 NAOKFM=F Big=F
 Integral buffers will be    131072 words long.
 Raffenetti 2 integral format.
 Two-electron integral symmetry is turned on.
 Leave Link  301 at Mon Mar  4 16:11:31 2024, MaxMem= 14763950080 cpu:               1.3 elap:               0.1
 (Enter /apps/gaussian/g16-c01-avx2/g16/l302.exe)
 NPDir=0 NMtPBC=     1 NCelOv=     1 NCel=       1 NClECP=     1 NCelD=      1
         NCelK=      1 NCelE2=     1 NClLst=     1 CellRange=     0.0.
 One-electron integrals computed using PRISM.
 One-electron integral symmetry used in STVInt
 NBasis=   388 RedAO= T EigKep=  9.45D-06  NBF=   388
 NBsUse=   388 1.00D-06 EigRej= -1.00D+00 NBFU=   388
 Precomputing XC quadrature grid using
 IXCGrd= 4 IRadAn=           5 IRanWt=          -1 IRanGd=           0 AccXCQ= 0.00D+00.
 Generated NRdTot=       0 NPtTot=           0 NUsed=           0 NTot=          32
 NSgBfM=   387   387   387   387   387 MxSgAt=    30 MxSgA2=    30.
 Leave Link  302 at Mon Mar  4 16:11:32 2024, MaxMem= 14763950080 cpu:               7.9 elap:               0.3
 (Enter /apps/gaussian/g16-c01-avx2/g16/l303.exe)
 DipDrv:  MaxL=1.
 Leave Link  303 at Mon Mar  4 16:11:32 2024, MaxMem= 14763950080 cpu:               1.1 elap:               0.1
 (Enter /apps/gaussian/g16-c01-avx2/g16/l401.exe)
 ExpMin= 9.52D-02 ExpMax= 1.36D+04 ExpMxC= 4.63D+02 IAcc=3 IRadAn=         5 AccDes= 0.00D+00
 Harris functional with IExCor=20419 and IRadAn=       5 diagonalized for initial guess.
 HarFok:  IExCor=20419 AccDes= 0.00D+00 IRadAn=         5 IDoV= 1 UseB2=F ITyADJ=14
 ICtDFT=  3500011 ScaDFX=  1.000000  1.000000  1.000000  1.000000
 FoFCou: FMM=F IPFlag=           0 FMFlag=      100000 FMFlg1=           0
         NFxFlg=           0 DoJE=T BraDBF=F KetDBF=T FulRan=T
         wScrn=  0.000000 ICntrl=       500 IOpCl=  0 I1Cent=   200000004 NGrid=           0
         NMat0=    1 NMatS0=      1 NMatT0=    0 NMatD0=    1 NMtDS0=    0 NMtDT0=    0
 Petite list used in FoFCou.
 Harris En= -592.431692407246    
 JPrj=0 DoOrth=F DoCkMO=F.
 Leave Link  401 at Mon Mar  4 16:11:34 2024, MaxMem= 14763950080 cpu:              22.5 elap:               0.7
 (Enter /apps/gaussian/g16-c01-avx2/g16/l502.exe)
 Integral symmetry usage will be decided dynamically.
 Closed shell SCF:
 Using DIIS extrapolation, IDIIS=  1040.
 NGot= 14763950080 LenX= 14763605982 LenY= 14763442325
 Requested convergence on RMS density matrix=1.00D-08 within 128 cycles.
 Requested convergence on MAX density matrix=1.00D-06.
 Requested convergence on             energy=1.00D-06.
 No special actions if energy rises.
 Fock matrices will be formed incrementally for  20 cycles.
 Integral accuracy reduced to 1.0D-05 until final iterations.

 Cycle   1  Pass 0  IDiag  1:
 FoFJK:  IHMeth= 1 ICntrl=       0 DoSepK=T KAlg= 0 I1Cent=           0 FoldK=F
 IRaf=         1 NMat=       1 IRICut=       1 DoRegI=T DoRafI=F ISym2E= 0 IDoP0=0 IntGTp=1.
 FoFCou: FMM=F IPFlag=           0 FMFlag=      100000 FMFlg1=           0
         NFxFlg=           0 DoJE=T BraDBF=F KetDBF=F FulRan=T
         wScrn=  0.000000 ICntrl=       500 IOpCl=  0 I1Cent=           0 NGrid=           0
         NMat0=    1 NMatS0=      1 NMatT0=    0 NMatD0=    1 NMtDS0=    0 NMtDT0=    0
 Symmetry not used in FoFCou.
 E= -617.786195542678    
 DIIS: error= 6.08D-02 at cycle   1 NSaved=   1.
 NSaved= 1 IEnMin= 1 EnMin= -617.786195542678     IErMin= 1 ErrMin= 6.08D-02
 ErrMax= 6.08D-02  0.00D+00 EMaxC= 1.00D-01 BMatC= 1.02D+00 BMatP= 1.02D+00
 IDIUse=3 WtCom= 3.92D-01 WtEn= 6.08D-01
 Coeff-Com:  0.100D+01
 Coeff-En:   0.100D+01
 Coeff:      0.100D+01
 Gap=     0.299 Goal=   None    Shift=    0.000
 GapD=    0.299 DampG=1.000 DampE=0.500 DampFc=0.5000 IDamp=-1.
 Damping current iteration by 5.00D-01
 RMSDP=2.61D-03 MaxDP=5.70D-02              OVMax= 5.27D-02

 Cycle   2  Pass 0  IDiag  1:
 RMSU=  1.23D-03    CP:  9.58D-01
 E= -617.852391285062     Delta-E=       -0.066195742384 Rises=F Damp=T
 DIIS: error= 2.99D-02 at cycle   2 NSaved=   2.
 NSaved= 2 IEnMin= 2 EnMin= -617.852391285062     IErMin= 2 ErrMin= 2.99D-02
 ErrMax= 2.99D-02  0.00D+00 EMaxC= 1.00D-01 BMatC= 2.26D-01 BMatP= 1.02D+00
 IDIUse=3 WtCom= 7.01D-01 WtEn= 2.99D-01
 Coeff-Com: -0.842D+00 0.184D+01
 Coeff-En:   0.000D+00 0.100D+01
 Coeff:     -0.591D+00 0.159D+01
 Gap=     0.303 Goal=   None    Shift=    0.000
 RMSDP=1.62D-03 MaxDP=4.12D-02 DE=-6.62D-02 OVMax= 4.05D-02

 Cycle   3  Pass 0  IDiag  1:
 RMSU=  1.20D-03    CP:  9.32D-01  1.86D+00
 E= -617.908894666788     Delta-E=       -0.056503381726 Rises=F Damp=F
 DIIS: error= 5.25D-03 at cycle   3 NSaved=   3.
 NSaved= 3 IEnMin= 3 EnMin= -617.908894666788     IErMin= 3 ErrMin= 5.25D-03
 ErrMax= 5.25D-03  0.00D+00 EMaxC= 1.00D-01 BMatC= 7.56D-03 BMatP= 2.26D-01
 IDIUse=3 WtCom= 9.48D-01 WtEn= 5.25D-02
 Coeff-Com: -0.337D+00 0.728D+00 0.609D+00
 Coeff-En:   0.000D+00 0.000D+00 0.100D+01
 Coeff:     -0.320D+00 0.690D+00 0.630D+00
 Gap=     0.306 Goal=   None    Shift=    0.000
 RMSDP=4.21D-04 MaxDP=1.02D-02 DE=-5.65D-02 OVMax= 2.24D-02

 Cycle   4  Pass 0  IDiag  1:
 RMSU=  3.47D-04    CP:  9.28D-01  1.99D+00  8.65D-01
 E= -617.915638667056     Delta-E=       -0.006744000268 Rises=F Damp=F
 DIIS: error= 1.64D-03 at cycle   4 NSaved=   4.
 NSaved= 4 IEnMin= 4 EnMin= -617.915638667056     IErMin= 4 ErrMin= 1.64D-03
 ErrMax= 1.64D-03  0.00D+00 EMaxC= 1.00D-01 BMatC= 4.39D-04 BMatP= 7.56D-03
 IDIUse=3 WtCom= 9.84D-01 WtEn= 1.64D-02
 Coeff-Com: -0.155D+00 0.335D+00 0.328D+00 0.492D+00
 Coeff-En:   0.000D+00 0.000D+00 0.000D+00 0.100D+01
 Coeff:     -0.152D+00 0.329D+00 0.323D+00 0.500D+00
 Gap=     0.303 Goal=   None    Shift=    0.000
 RMSDP=1.90D-04 MaxDP=4.13D-03 DE=-6.74D-03 OVMax= 5.97D-03

 Cycle   5  Pass 0  IDiag  1:
 RMSU=  1.42D-04    CP:  9.29D-01  2.01D+00  9.55D-01  1.16D+00
 E= -617.916084169057     Delta-E=       -0.000445502001 Rises=F Damp=F
 DIIS: error= 2.62D-04 at cycle   5 NSaved=   5.
 NSaved= 5 IEnMin= 5 EnMin= -617.916084169057     IErMin= 5 ErrMin= 2.62D-04
 ErrMax= 2.62D-04  0.00D+00 EMaxC= 1.00D-01 BMatC= 1.49D-05 BMatP= 4.39D-04
 IDIUse=3 WtCom= 9.97D-01 WtEn= 2.62D-03
 Coeff-Com:  0.214D-03-0.515D-03 0.812D-02 0.145D+00 0.847D+00
 Coeff-En:   0.000D+00 0.000D+00 0.000D+00 0.000D+00 0.100D+01
 Coeff:      0.214D-03-0.514D-03 0.810D-02 0.145D+00 0.847D+00
 Gap=     0.283 Goal=   None    Shift=    0.000
 RMSDP=2.74D-04 MaxDP=7.44D-03 DE=-4.46D-04 OVMax= 1.97D-03

 Cycle   6  Pass 0  IDiag  1:
 RMSU=  1.12D-04    CP:  9.33D-01  2.02D+00  1.10D+00  1.53D+00  1.82D+00
 E= -617.916098793404     Delta-E=       -0.000014624347 Rises=F Damp=F
 DIIS: error= 1.34D-04 at cycle   6 NSaved=   6.
 NSaved= 6 IEnMin= 6 EnMin= -617.916098793404     IErMin= 6 ErrMin= 1.34D-04
 ErrMax= 1.34D-04  0.00D+00 EMaxC= 1.00D-01 BMatC= 2.92D-06 BMatP= 1.49D-05
 IDIUse=3 WtCom= 9.99D-01 WtEn= 1.34D-03
 Coeff-Com:  0.123D-01-0.267D-01-0.223D-01 0.252D-01 0.399D+00 0.612D+00
 Coeff-En:   0.000D+00 0.000D+00 0.000D+00 0.000D+00 0.000D+00 0.100D+01
 Coeff:      0.123D-01-0.267D-01-0.222D-01 0.252D-01 0.399D+00 0.613D+00
 Gap=     0.273 Goal=   None    Shift=    0.000
 RMSDP=1.95D-04 MaxDP=5.46D-03 DE=-1.46D-05 OVMax= 7.28D-04

 Cycle   7  Pass 0  IDiag  1:
 RMSU=  3.64D-05    CP:  9.36D-01  2.02D+00  1.20D+00  1.70D+00  2.52D+00
                    CP:  1.88D+00
 E= -617.916100909021     Delta-E=       -0.000002115617 Rises=F Damp=F
 DIIS: error= 4.28D-05 at cycle   7 NSaved=   7.
 NSaved= 7 IEnMin= 7 EnMin= -617.916100909021     IErMin= 7 ErrMin= 4.28D-05
 ErrMax= 4.28D-05  0.00D+00 EMaxC= 1.00D-01 BMatC= 1.30D-07 BMatP= 2.92D-06
 IDIUse=1 WtCom= 1.00D+00 WtEn= 0.00D+00
 Coeff-Com:  0.357D-02-0.775D-02-0.637D-02-0.214D-04 0.743D-01 0.179D+00
 Coeff-Com:  0.757D+00
 Coeff:      0.357D-02-0.775D-02-0.637D-02-0.214D-04 0.743D-01 0.179D+00
 Coeff:      0.757D+00
 Gap=     0.257 Goal=   None    Shift=    0.000
 RMSDP=3.25D-04 MaxDP=9.38D-03 DE=-2.12D-06 OVMax= 2.02D-04

 Cycle   8  Pass 0  IDiag  1:
 RMSU=  1.11D-04    CP:  9.41D-01  2.01D+00  1.35D+00  1.94D+00  3.00D+00
                    CP:  3.00D+00  2.83D+00
 E= -617.916099169008     Delta-E=        0.000001740013 Rises=F Damp=F
 DIIS: error= 6.08D-05 at cycle   8 NSaved=   8.
 NSaved= 8 IEnMin= 7 EnMin= -617.916100909021     IErMin= 7 ErrMin= 4.28D-05
 ErrMax= 6.08D-05  0.00D+00 EMaxC= 1.00D-01 BMatC= 1.58D-07 BMatP= 1.30D-07
 IDIUse=1 WtCom= 1.00D+00 WtEn= 0.00D+00
 Coeff-Com:  0.302D-02-0.654D-02-0.535D-02-0.235D-03 0.620D-01 0.153D+00
 Coeff-Com:  0.668D+00 0.126D+00
 Coeff:      0.302D-02-0.654D-02-0.535D-02-0.235D-03 0.620D-01 0.153D+00
 Coeff:      0.668D+00 0.126D+00
 Gap=     0.253 Goal=   None    Shift=    0.000
 RMSDP=8.01D-05 MaxDP=2.41D-03 DE= 1.74D-06 OVMax= 4.27D-05

 Cycle   9  Pass 0  IDiag  1:
 RMSU=  2.68D-05    CP:  9.42D-01  2.01D+00  1.39D+00  1.98D+00  3.00D+00
                    CP:  3.00D+00  3.00D+00  1.49D+00
 E= -617.916098500525     Delta-E=        0.000000668483 Rises=F Damp=F
 DIIS: error= 6.23D-05 at cycle   9 NSaved=   9.
 NSaved= 9 IEnMin= 7 EnMin= -617.916100909021     IErMin= 7 ErrMin= 4.28D-05
 ErrMax= 6.23D-05  0.00D+00 EMaxC= 1.00D-01 BMatC= 1.67D-07 BMatP= 1.30D-07
 IDIUse=1 WtCom= 1.00D+00 WtEn= 0.00D+00
 Coeff-Com:  0.235D-02-0.508D-02-0.411D-02-0.316D-02 0.314D-01 0.119D+00
 Coeff-Com:  0.792D+00 0.223D+01-0.216D+01
 Coeff:      0.235D-02-0.508D-02-0.411D-02-0.316D-02 0.314D-01 0.119D+00
 Coeff:      0.792D+00 0.223D+01-0.216D+01
 Gap=     0.252 Goal=   None    Shift=    0.000
 RMSDP=1.27D-04 MaxDP=2.97D-03 DE= 6.68D-07 OVMax= 8.85D-05

 Cycle  10  Pass 0  IDiag  1:
 RMSU=  4.42D-05    CP:  9.41D-01  2.02D+00  1.34D+00  2.03D+00  3.00D+00
                    CP:  3.00D+00  1.77D+00  9.26D-01 -1.20D+00
 E= -617.916100844300     Delta-E=       -0.000002343775 Rises=F Damp=F
 DIIS: error= 5.98D-05 at cycle  10 NSaved=  10.
 NSaved=10 IEnMin= 7 EnMin= -617.916100909021     IErMin= 7 ErrMin= 4.28D-05
 ErrMax= 5.98D-05  0.00D+00 EMaxC= 1.00D-01 BMatC= 1.68D-07 BMatP= 1.30D-07
 IDIUse=1 WtCom= 1.00D+00 WtEn= 0.00D+00
 Coeff-Com:  0.202D-02-0.437D-02-0.350D-02-0.345D-02 0.234D-01 0.105D+00
 Coeff-Com:  0.773D+00 0.285D+01-0.341D+01 0.673D+00
 Coeff:      0.202D-02-0.437D-02-0.350D-02-0.345D-02 0.234D-01 0.105D+00
 Coeff:      0.773D+00 0.285D+01-0.341D+01 0.673D+00
 Gap=     0.250 Goal=   None    Shift=    0.000
 RMSDP=1.27D-04 MaxDP=2.60D-03 DE=-2.34D-06 OVMax= 8.47D-05

 Cycle  11  Pass 0  IDiag  1:
 RMSU=  3.09D-05    CP:  9.39D-01  2.04D+00  1.30D+00  2.03D+00  3.00D+00
                    CP:  2.50D+00  4.64D-02  5.21D-01 -9.07D-01  1.90D+00
 E= -617.916099738974     Delta-E=        0.000001105327 Rises=F Damp=F
 DIIS: error= 5.18D-05 at cycle  11 NSaved=  11.
 NSaved=11 IEnMin= 7 EnMin= -617.916100909021     IErMin= 7 ErrMin= 4.28D-05
 ErrMax= 5.18D-05  0.00D+00 EMaxC= 1.00D-01 BMatC= 1.32D-07 BMatP= 1.30D-07
 IDIUse=1 WtCom= 1.00D+00 WtEn= 0.00D+00
 Coeff-Com:  0.153D-03-0.309D-03-0.104D-03-0.741D-02-0.381D-01 0.948D-02
 Coeff-Com:  0.721D+00 0.390D+01-0.365D+01-0.182D+01 0.189D+01
 Coeff:      0.153D-03-0.309D-03-0.104D-03-0.741D-02-0.381D-01 0.948D-02
 Coeff:      0.721D+00 0.390D+01-0.365D+01-0.182D+01 0.189D+01
 Gap=     0.270 Goal=   None    Shift=    0.000
 RMSDP=3.71D-04 MaxDP=9.96D-03 DE= 1.11D-06 OVMax= 2.11D-04

 Cycle  12  Pass 0  IDiag  1:
 RMSU=  8.16D-05    CP:  9.34D-01  2.04D+00  1.14D+00  1.82D+00  2.15D+00
                    CP:  8.28D-01 -3.00D+00 -6.50D-02 -7.05D-02  2.22D+00
                    CP:  2.43D+00
 E= -617.916099795866     Delta-E=       -0.000000056893 Rises=F Damp=F
 DIIS: error= 3.43D-05 at cycle  12 NSaved=  12.
 NSaved=12 IEnMin= 7 EnMin= -617.916100909021     IErMin=12 ErrMin= 3.43D-05
 ErrMax= 3.43D-05  0.00D+00 EMaxC= 1.00D-01 BMatC= 4.94D-08 BMatP= 1.30D-07
 IDIUse=1 WtCom= 1.00D+00 WtEn= 0.00D+00
 Coeff-Com: -0.499D-03 0.110D-02 0.101D-02-0.423D-02-0.325D-01-0.200D-01
 Coeff-Com:  0.312D+00 0.302D+01-0.271D+01-0.465D+00-0.163D+00 0.106D+01
 Coeff:     -0.499D-03 0.110D-02 0.101D-02-0.423D-02-0.325D-01-0.200D-01
 Coeff:      0.312D+00 0.302D+01-0.271D+01-0.465D+00-0.163D+00 0.106D+01
 Gap=     0.283 Goal=   None    Shift=    0.000
 RMSDP=2.06D-04 MaxDP=5.52D-03 DE=-5.69D-08 OVMax= 1.24D-04

 Cycle  13  Pass 0  IDiag  1:
 RMSU=  3.27D-05    CP:  9.31D-01  2.04D+00  1.04D+00  1.65D+00  1.37D+00
                    CP:  2.81D-02 -3.00D+00 -1.34D-01 -5.30D-01  1.52D+00
                    CP:  3.00D+00  1.50D+00
 E= -617.916101912540     Delta-E=       -0.000002116673 Rises=F Damp=F
 DIIS: error= 1.65D-05 at cycle  13 NSaved=  13.
 NSaved=13 IEnMin=13 EnMin= -617.916101912540     IErMin=13 ErrMin= 1.65D-05
 ErrMax= 1.65D-05  0.00D+00 EMaxC= 1.00D-01 BMatC= 1.32D-08 BMatP= 4.94D-08
 IDIUse=1 WtCom= 1.00D+00 WtEn= 0.00D+00
 Coeff-Com: -0.272D-03 0.599D-03 0.551D-03-0.287D-02-0.205D-01-0.106D-01
 Coeff-Com:  0.213D+00 0.208D+01-0.194D+01-0.161D+00-0.235D+00 0.530D+00
 Coeff-Com:  0.538D+00
 Coeff:     -0.272D-03 0.599D-03 0.551D-03-0.287D-02-0.205D-01-0.106D-01
 Coeff:      0.213D+00 0.208D+01-0.194D+01-0.161D+00-0.235D+00 0.530D+00
 Coeff:      0.538D+00
 Gap=     0.286 Goal=   None    Shift=    0.000
 RMSDP=5.96D-05 MaxDP=1.50D-03 DE=-2.12D-06 OVMax= 3.92D-05

 Cycle  14  Pass 0  IDiag  1:
 RMSU=  1.17D-05    CP:  9.30D-01  2.04D+00  1.01D+00  1.61D+00  1.13D+00
                    CP: -1.90D-01 -3.00D+00 -1.52D-01 -6.25D-01  1.31D+00
                    CP:  3.00D+00  1.59D+00  1.51D+00
 E= -617.916102981179     Delta-E=       -0.000001068639 Rises=F Damp=F
 DIIS: error= 1.17D-05 at cycle  14 NSaved=  14.
 NSaved=14 IEnMin=14 EnMin= -617.916102981179     IErMin=14 ErrMin= 1.17D-05
 ErrMax= 1.17D-05  0.00D+00 EMaxC= 1.00D-01 BMatC= 7.19D-09 BMatP= 1.32D-08
 IDIUse=1 WtCom= 1.00D+00 WtEn= 0.00D+00
 Coeff-Com: -0.182D-03 0.399D-03 0.371D-03-0.207D-02-0.145D-01-0.656D-02
 Coeff-Com:  0.157D+00 0.121D+01-0.105D+01-0.243D+00 0.787D-02 0.117D+00
 Coeff-Com: -0.283D+00 0.111D+01
 Coeff:     -0.182D-03 0.399D-03 0.371D-03-0.207D-02-0.145D-01-0.656D-02
 Coeff:      0.157D+00 0.121D+01-0.105D+01-0.243D+00 0.787D-02 0.117D+00
 Coeff:     -0.283D+00 0.111D+01
 Gap=     0.287 Goal=   None    Shift=    0.000
 RMSDP=3.90D-05 MaxDP=8.62D-04 DE=-1.07D-06 OVMax= 2.68D-05

 Cycle  15  Pass 0  IDiag  1:
 RMSU=  1.29D-05    CP:  9.29D-01  2.04D+00  1.00D+00  1.58D+00  9.76D-01
                    CP: -2.62D-01 -3.00D+00 -1.71D-01 -5.54D-01  1.01D+00
                    CP:  3.00D+00  1.60D+00  1.93D+00  2.06D+00
 E= -617.916103101397     Delta-E=       -0.000000120219 Rises=F Damp=F
 DIIS: error= 9.14D-06 at cycle  15 NSaved=  15.
 NSaved=15 IEnMin=15 EnMin= -617.916103101397     IErMin=15 ErrMin= 9.14D-06
 ErrMax= 9.14D-06  0.00D+00 EMaxC= 1.00D-01 BMatC= 4.10D-09 BMatP= 7.19D-09
 IDIUse=1 WtCom= 1.00D+00 WtEn= 0.00D+00
 Coeff-Com: -0.194D-03 0.424D-03 0.381D-03-0.148D-02-0.117D-01-0.795D-02
 Coeff-Com:  0.100D+00 0.103D+01-0.988D+00 0.317D-02-0.147D+00 0.195D+00
 Coeff-Com: -0.258D+00 0.214D+00 0.870D+00
 Coeff:     -0.194D-03 0.424D-03 0.381D-03-0.148D-02-0.117D-01-0.795D-02
 Coeff:      0.100D+00 0.103D+01-0.988D+00 0.317D-02-0.147D+00 0.195D+00
 Coeff:     -0.258D+00 0.214D+00 0.870D+00
 Gap=     0.289 Goal=   None    Shift=    0.000
 RMSDP=3.37D-05 MaxDP=8.48D-04 DE=-1.20D-07 OVMax= 2.07D-05

 Cycle  16  Pass 0  IDiag  1:
 RMSU=  1.21D-05    CP:  9.29D-01  2.04D+00  9.92D-01  1.58D+00  8.49D-01
                    CP: -3.60D-01 -3.00D+00 -1.94D-01 -6.24D-01  8.81D-01
                    CP:  3.00D+00  1.71D+00  2.33D+00  2.37D+00  1.46D+00
 E= -617.916102879910     Delta-E=        0.000000221488 Rises=F Damp=F
 DIIS: error= 8.35D-06 at cycle  16 NSaved=  16.
 NSaved=16 IEnMin=15 EnMin= -617.916103101397     IErMin=16 ErrMin= 8.35D-06
 ErrMax= 8.35D-06  0.00D+00 EMaxC= 1.00D-01 BMatC= 3.06D-09 BMatP= 4.10D-09
 IDIUse=1 WtCom= 1.00D+00 WtEn= 0.00D+00
 Coeff-Com: -0.167D-03 0.365D-03 0.329D-03-0.129D-02-0.101D-01-0.665D-02
 Coeff-Com:  0.896D-01 0.947D+00-0.928D+00 0.297D-01-0.145D+00 0.181D+00
 Coeff-Com: -0.242D+00 0.173D+00 0.666D+00 0.245D+00
 Coeff:     -0.167D-03 0.365D-03 0.329D-03-0.129D-02-0.101D-01-0.665D-02
 Coeff:      0.896D-01 0.947D+00-0.928D+00 0.297D-01-0.145D+00 0.181D+00
 Coeff:     -0.242D+00 0.173D+00 0.666D+00 0.245D+00
 Gap=     0.290 Goal=   None    Shift=    0.000
 RMSDP=1.25D-05 MaxDP=3.40D-04 DE= 2.21D-07 OVMax= 7.39D-06

 Cycle  17  Pass 0  IDiag  1:
 RMSU=  2.23D-06    CP:  9.29D-01  2.04D+00  9.87D-01  1.57D+00  8.04D-01
                    CP: -4.07D-01 -3.00D+00 -1.98D-01 -6.45D-01  8.79D-01
                    CP:  3.00D+00  1.73D+00  2.45D+00  2.58D+00  1.56D+00
                    CP:  1.23D+00
 E= -617.916102109479     Delta-E=        0.000000770430 Rises=F Damp=F
 DIIS: error= 9.08D-06 at cycle  17 NSaved=  17.
 NSaved=17 IEnMin=15 EnMin= -617.916103101397     IErMin=16 ErrMin= 8.35D-06
 ErrMax= 9.08D-06  0.00D+00 EMaxC= 1.00D-01 BMatC= 3.44D-09 BMatP= 3.06D-09
 IDIUse=1 WtCom= 1.00D+00 WtEn= 0.00D+00
 Coeff-Com: -0.162D-03 0.354D-03 0.320D-03-0.125D-02-0.979D-02-0.639D-02
 Coeff-Com:  0.891D-01 0.956D+00-0.947D+00 0.222D-01-0.127D+00 0.167D+00
 Coeff-Com: -0.239D+00 0.147D+00 0.550D+00 0.950D+00-0.552D+00
 Coeff:     -0.162D-03 0.354D-03 0.320D-03-0.125D-02-0.979D-02-0.639D-02
 Coeff:      0.891D-01 0.956D+00-0.947D+00 0.222D-01-0.127D+00 0.167D+00
 Coeff:     -0.239D+00 0.147D+00 0.550D+00 0.950D+00-0.552D+00
 Gap=     0.290 Goal=   None    Shift=    0.000
 RMSDP=5.26D-06 MaxDP=1.66D-04 DE= 7.70D-07 OVMax= 2.80D-06

 Initial convergence to 1.0D-05 achieved.  Increase integral accuracy.
 Cycle  18  Pass 1  IDiag  1:
 E= -617.916029580073     Delta-E=        0.000072529406 Rises=F Damp=F
 DIIS: error= 8.31D-04 at cycle   1 NSaved=   1.
 NSaved= 1 IEnMin= 1 EnMin= -617.916029580073     IErMin= 1 ErrMin= 8.31D-04
 ErrMax= 8.31D-04  0.00D+00 EMaxC= 1.00D-01 BMatC= 3.27D-05 BMatP= 3.27D-05
 IDIUse=3 WtCom= 9.92D-01 WtEn= 8.31D-03
 Coeff-Com:  0.100D+01
 Coeff-En:   0.100D+01
 Coeff:      0.100D+01
 Gap=     0.845 Goal=   None    Shift=    0.000
 RMSDP=5.26D-06 MaxDP=1.66D-04 DE= 7.25D-05 OVMax= 1.51D-03

 Cycle  19  Pass 1  IDiag  1:
 RMSU=  2.28D-03    CP:  9.33D-01
 E= -617.916062801935     Delta-E=       -0.000033221862 Rises=F Damp=F
 DIIS: error= 3.21D-05 at cycle   2 NSaved=   2.
 NSaved= 2 IEnMin= 2 EnMin= -617.916062801935     IErMin= 2 ErrMin= 3.21D-05
 ErrMax= 3.21D-05  0.00D+00 EMaxC= 1.00D-01 BMatC= 4.01D-08 BMatP= 3.27D-05
 IDIUse=1 WtCom= 1.00D+00 WtEn= 0.00D+00
 Coeff-Com: -0.268D-01 0.103D+01
 Coeff:     -0.268D-01 0.103D+01
 Gap=     0.303 Goal=   None    Shift=    0.000
 RMSDP=8.14D-05 MaxDP=1.80D-03 DE=-3.32D-05 OVMax= 9.04D-05

 Cycle  20  Pass 1  IDiag  1:
 RMSU=  4.78D-05    CP:  9.31D-01  1.03D+00
 E= -617.916062873524     Delta-E=       -0.000000071589 Rises=F Damp=F
 DIIS: error= 9.02D-07 at cycle   3 NSaved=   3.
 NSaved= 3 IEnMin= 3 EnMin= -617.916062873524     IErMin= 3 ErrMin= 9.02D-07
 ErrMax= 9.02D-07  0.00D+00 EMaxC= 1.00D-01 BMatC= 5.16D-10 BMatP= 4.01D-08
 IDIUse=1 WtCom= 1.00D+00 WtEn= 0.00D+00
 Coeff-Com: -0.493D-04-0.178D-01 0.102D+01
 Coeff:     -0.493D-04-0.178D-01 0.102D+01
 Gap=     0.303 Goal=   None    Shift=    0.000
 RMSDP=3.39D-06 MaxDP=7.31D-05 DE=-7.16D-08 OVMax= 1.31D-05

 Cycle  21  Pass 1  IDiag  1:
 RMSU=  1.61D-06    CP:  9.31D-01  1.03D+00  1.05D+00
 E= -617.916062873559     Delta-E=       -0.000000000034 Rises=F Damp=F
 DIIS: error= 1.23D-06 at cycle   4 NSaved=   4.
 NSaved= 4 IEnMin= 4 EnMin= -617.916062873559     IErMin= 3 ErrMin= 9.02D-07
 ErrMax= 1.23D-06  0.00D+00 EMaxC= 1.00D-01 BMatC= 6.67D-10 BMatP= 5.16D-10
 IDIUse=1 WtCom= 1.00D+00 WtEn= 0.00D+00
 Coeff-Com:  0.682D-03-0.371D-01 0.563D+00 0.474D+00
 Coeff:      0.682D-03-0.371D-01 0.563D+00 0.474D+00
 Gap=     0.303 Goal=   None    Shift=    0.000
 RMSDP=2.16D-07 MaxDP=5.02D-06 DE=-3.43D-11 OVMax= 9.03D-06

 Cycle  22  Pass 1  IDiag  1:
 RMSU=  9.05D-08    CP:  9.31D-01  1.03D+00  1.05D+00  1.07D+00
 E= -617.916062874220     Delta-E=       -0.000000000661 Rises=F Damp=F
 DIIS: error= 2.11D-07 at cycle   5 NSaved=   5.
 NSaved= 5 IEnMin= 5 EnMin= -617.916062874220     IErMin= 5 ErrMin= 2.11D-07
 ErrMax= 2.11D-07  0.00D+00 EMaxC= 1.00D-01 BMatC= 1.33D-11 BMatP= 5.16D-10
 IDIUse=1 WtCom= 1.00D+00 WtEn= 0.00D+00
 Coeff-Com:  0.263D-03-0.132D-01 0.162D+00 0.181D+00 0.669D+00
 Coeff:      0.263D-03-0.132D-01 0.162D+00 0.181D+00 0.669D+00
 Gap=     0.303 Goal=   None    Shift=    0.000
 RMSDP=6.01D-08 MaxDP=1.33D-06 DE=-6.61D-10 OVMax= 1.60D-06

 Cycle  23  Pass 1  IDiag  1:
 RMSU=  2.65D-08    CP:  9.31D-01  1.03D+00  1.05D+00  1.10D+00  1.06D+00
 E= -617.916062874227     Delta-E=       -0.000000000007 Rises=F Damp=F
 DIIS: error= 7.54D-08 at cycle   6 NSaved=   6.
 NSaved= 6 IEnMin= 6 EnMin= -617.916062874227     IErMin= 6 ErrMin= 7.54D-08
 ErrMax= 7.54D-08  0.00D+00 EMaxC= 1.00D-01 BMatC= 2.29D-12 BMatP= 1.33D-11
 IDIUse=1 WtCom= 1.00D+00 WtEn= 0.00D+00
 Coeff-Com: -0.258D-05 0.612D-03-0.259D-01-0.163D-02 0.300D+00 0.727D+00
 Coeff:     -0.258D-05 0.612D-03-0.259D-01-0.163D-02 0.300D+00 0.727D+00
 Gap=     0.303 Goal=   None    Shift=    0.000
 RMSDP=2.79D-08 MaxDP=6.19D-07 DE=-7.28D-12 OVMax= 5.20D-07

 Cycle  24  Pass 1  IDiag  1:
 RMSU=  1.06D-08    CP:  9.31D-01  1.03D+00  1.05D+00  1.11D+00  1.12D+00
                    CP:  1.23D+00
 E= -617.916062874230     Delta-E=       -0.000000000003 Rises=F Damp=F
 DIIS: error= 2.12D-08 at cycle   7 NSaved=   7.
 NSaved= 7 IEnMin= 7 EnMin= -617.916062874230     IErMin= 7 ErrMin= 2.12D-08
 ErrMax= 2.12D-08  0.00D+00 EMaxC= 1.00D-01 BMatC= 1.72D-13 BMatP= 2.29D-12
 IDIUse=1 WtCom= 1.00D+00 WtEn= 0.00D+00
 Coeff-Com: -0.170D-04 0.107D-02-0.213D-01-0.114D-01 0.935D-01 0.327D+00
 Coeff-Com:  0.611D+00
 Coeff:     -0.170D-04 0.107D-02-0.213D-01-0.114D-01 0.935D-01 0.327D+00
 Coeff:      0.611D+00
 Gap=     0.303 Goal=   None    Shift=    0.000
 RMSDP=3.06D-09 MaxDP=8.63D-08 DE=-2.96D-12 OVMax= 1.19D-07

 SCF Done:  E(RCAM-B3LYP) =  -617.916062874     A.U. after   24 cycles
            NFock= 24  Conv=0.31D-08     -V/T= 2.0056
 KE= 6.144911524229D+02 PE=-3.159251027497D+03 EE= 1.063588140265D+03
 Leave Link  502 at Mon Mar  4 16:12:08 2024, MaxMem= 14763950080 cpu:            1080.8 elap:              34.1
 (Enter /apps/gaussian/g16-c01-avx2/g16/l601.exe)
 Copying SCF densities to generalized density rwf, IOpCl= 0 IROHF=0.

 **********************************************************************

            Population analysis using the SCF Density.

 **********************************************************************

 Orbital symmetries:
       Occupied  (A) (A) (A) (A) (A) (A) (A) (A) (A) (A) (A) (A)
                 (A) (A) (A) (A) (A) (A) (A) (A) (A) (A) (A) (A)
                 (A) (A) (A) (A) (A) (A) (A) (A) (A) (A) (A) (A)
                 (A) (A) (A) (A) (A) (A) (A) (A) (A) (A) (A) (A)
                 (A) (A) (A) (A) (A) (A) (A)
       Virtual   (A) (A) (A) (A) (A) (A) (A) (A) (A) (A) (A) (A)
                 (A) (A) (A) (A) (A) (A) (A) (A) (A) (A) (A) (A)
                 (A) (A) (A) (A) (A) (A) (A) (A) (A) (A) (A) (A)
                 (A) (A) (A) (A) (A) (A) (A) (A) (A) (A) (A) (A)
                 (A) (A) (A) (A) (A) (A) (A) (A) (A) (A) (A) (A)
                 (A) (A) (A) (A) (A) (A) (A) (A) (A) (A) (A) (A)
                 (A) (A) (A) (A) (A) (A) (A) (A) (A) (A) (A) (A)
                 (A) (A) (A) (A) (A) (A) (A) (A) (A) (A) (A) (A)
                 (A) (A) (A) (A) (A) (A) (A) (A) (A) (A) (A) (A)
                 (A) (A) (A) (A) (A) (A) (A) (A) (A) (A) (A) (A)
                 (A) (A) (A) (A) (A) (A) (A) (A) (A) (A) (A) (A)
                 (A) (A) (A) (A) (A) (A) (A) (A) (A) (A) (A) (A)
                 (A) (A) (A) (A) (A) (A) (A) (A) (A) (A) (A) (A)
                 (A) (A) (A) (A) (A) (A) (A) (A) (A) (A) (A) (A)
                 (A) (A) (A) (A) (A) (A) (A) (A) (A) (A) (A) (A)
                 (A) (A) (A) (A) (A) (A) (A) (A) (A) (A) (A) (A)
                 (A) (A) (A) (A) (A) (A) (A) (A) (A) (A) (A) (A)
                 (A) (A) (A) (A) (A) (A) (A) (A) (A) (A) (A) (A)
                 (A) (A) (A) (A) (A) (A) (A) (A) (A) (A) (A) (A)
                 (A) (A) (A) (A) (A) (A) (A) (A) (A) (A) (A) (A)
                 (A) (A) (A) (A) (A) (A) (A) (A) (A) (A) (A) (A)
                 (A) (A) (A) (A) (A) (A) (A) (A) (A) (A) (A) (A)
                 (A) (A) (A) (A) (A) (A) (A) (A) (A) (A) (A) (A)
                 (A) (A) (A) (A) (A) (A) (A) (A) (A) (A) (A) (A)
                 (A) (A) (A) (A) (A) (A) (A) (A) (A) (A) (A) (A)
                 (A) (A) (A) (A) (A) (A) (A) (A) (A) (A) (A) (A)
                 (A) (A) (A) (A) (A) (A) (A) (A) (A) (A) (A) (A)
                 (A) (A) (A) (A) (A) (A) (A) (A) (A)
 The electronic state is 1-A.
 Alpha  occ. eigenvalues --  -10.26437 -10.26423 -10.26120 -10.26097 -10.25735
 Alpha  occ. eigenvalues --  -10.25719 -10.25379 -10.25372 -10.25370 -10.25363
 Alpha  occ. eigenvalues --  -10.25234 -10.25228 -10.25217 -10.25212 -10.25205
 Alpha  occ. eigenvalues --  -10.25202  -0.94757  -0.94653  -0.89225  -0.86141
 Alpha  occ. eigenvalues --   -0.82962  -0.82958  -0.82635  -0.79040  -0.70332
 Alpha  occ. eigenvalues --   -0.68208  -0.68197  -0.67278  -0.63971  -0.63958
 Alpha  occ. eigenvalues --   -0.59282  -0.58362  -0.54217  -0.53129  -0.52603
 Alpha  occ. eigenvalues --   -0.52554  -0.51282  -0.50471  -0.49069  -0.49060
 Alpha  occ. eigenvalues --   -0.47473  -0.47262  -0.44292  -0.43672  -0.43536
 Alpha  occ. eigenvalues --   -0.41348  -0.41215  -0.40969  -0.38964  -0.38082
 Alpha  occ. eigenvalues --   -0.31320  -0.31296  -0.30954  -0.30736  -0.29067
 Alpha virt. eigenvalues --    0.01237   0.02792   0.03086   0.03398   0.03402
 Alpha virt. eigenvalues --    0.08864   0.08955   0.08973   0.10242   0.11649
 Alpha virt. eigenvalues --    0.11894   0.12026   0.12779   0.12858   0.13961
 Alpha virt. eigenvalues --    0.15076   0.15213   0.15576   0.15626   0.15716
 Alpha virt. eigenvalues --    0.17745   0.19710   0.19772   0.20843   0.21066
 Alpha virt. eigenvalues --    0.22214   0.22930   0.23728   0.24087   0.24693
 Alpha virt. eigenvalues --    0.26437   0.26461   0.26941   0.27028   0.27057
 Alpha virt. eigenvalues --    0.27451   0.27894   0.28335   0.28639   0.28759
 Alpha virt. eigenvalues --    0.30120   0.30649   0.30806   0.31168   0.32015
 Alpha virt. eigenvalues --    0.32106   0.32948   0.34057   0.35014   0.36225
 Alpha virt. eigenvalues --    0.37433   0.38208   0.38685   0.38842   0.39423
 Alpha virt. eigenvalues --    0.39837   0.40423   0.41004   0.41113   0.41399
 Alpha virt. eigenvalues --    0.41493   0.41516   0.42145   0.42785   0.43292
 Alpha virt. eigenvalues --    0.45351   0.46099   0.46238   0.46810   0.46945
 Alpha virt. eigenvalues --    0.47055   0.47572   0.48270   0.49466   0.49489
 Alpha virt. eigenvalues --    0.49927   0.50554   0.50600   0.51130   0.52244
 Alpha virt. eigenvalues --    0.52452   0.52604   0.53833   0.54069   0.55276
 Alpha virt. eigenvalues --    0.55348   0.55903   0.56161   0.56316   0.56413
 Alpha virt. eigenvalues --    0.57760   0.60292   0.60504   0.63036   0.63791
 Alpha virt. eigenvalues --    0.64436   0.64744   0.66924   0.67021   0.70843
 Alpha virt. eigenvalues --    0.71031   0.71404   0.71755   0.74290   0.74362
 Alpha virt. eigenvalues --    0.74559   0.76240   0.77061   0.77247   0.77655
 Alpha virt. eigenvalues --    0.80915   0.81074   0.83020   0.84651   0.85515
 Alpha virt. eigenvalues --    0.94984   0.95000   1.19745   1.19833   1.26348
 Alpha virt. eigenvalues --    1.26888   1.28151   1.29235   1.29933   1.30789
 Alpha virt. eigenvalues --    1.31328   1.31388   1.31405   1.31909   1.32241
 Alpha virt. eigenvalues --    1.33156   1.33617   1.34676   1.35506   1.35902
 Alpha virt. eigenvalues --    1.36757   1.36844   1.37028   1.37430   1.37497
 Alpha virt. eigenvalues --    1.38283   1.38695   1.38865   1.43454   1.43648
 Alpha virt. eigenvalues --    1.44191   1.46678   1.47224   1.47820   1.47869
 Alpha virt. eigenvalues --    1.49483   1.49872   1.50530   1.50954   1.51152
 Alpha virt. eigenvalues --    1.51157   1.51281   1.51432   1.51493   1.52624
 Alpha virt. eigenvalues --    1.52680   1.52837   1.54054   1.54423   1.54645
 Alpha virt. eigenvalues --    1.55850   1.56027   1.56164   1.56302   1.57605
 Alpha virt. eigenvalues --    1.58831   1.59143   1.59250   1.60563   1.60703
 Alpha virt. eigenvalues --    1.60796   1.61637   1.62711   1.64578   1.66693
 Alpha virt. eigenvalues --    1.67112   1.67490   1.68343   1.68562   1.69785
 Alpha virt. eigenvalues --    1.70967   1.74114   1.77436   1.82199   1.82479
 Alpha virt. eigenvalues --    1.83064   1.83132   1.83975   1.84204   1.85427
 Alpha virt. eigenvalues --    1.85489   1.85857   1.86130   1.89070   1.89164
 Alpha virt. eigenvalues --    1.90930   1.91159   1.92651   1.92975   1.93151
 Alpha virt. eigenvalues --    1.93705   1.93832   1.94751   1.94996   1.95607
 Alpha virt. eigenvalues --    1.96228   1.96982   1.97593   1.97675   1.98142
 Alpha virt. eigenvalues --    1.98554   1.98885   2.02295   2.02306   2.03487
 Alpha virt. eigenvalues --    2.04193   2.07110   2.07225   2.07615   2.08286
 Alpha virt. eigenvalues --    2.11807   2.11937   2.16635   2.16769   2.18004
 Alpha virt. eigenvalues --    2.19481   2.23341   2.27832   2.29755   2.31172
 Alpha virt. eigenvalues --    2.32503   2.33172   2.33314   2.34390   2.37199
 Alpha virt. eigenvalues --    2.37233   2.37333   2.39612   2.39886   2.40785
 Alpha virt. eigenvalues --    2.41602   2.41690   2.43486   2.43752   2.45332
 Alpha virt. eigenvalues --    2.47626   2.49186   2.51365   2.55277   2.55820
 Alpha virt. eigenvalues --    2.55826   2.55929   2.55997   2.58697   2.58768
 Alpha virt. eigenvalues --    2.59933   2.60854   2.63018   2.65316   2.65893
 Alpha virt. eigenvalues --    2.68054   2.69454   2.69623   2.71174   2.72992
 Alpha virt. eigenvalues --    2.73378   2.73456   2.75616   2.76118   2.76234
 Alpha virt. eigenvalues --    2.76798   2.77387   2.77542   2.80538   2.85800
 Alpha virt. eigenvalues --    2.85939   2.86074   2.87008   2.90778   3.02541
 Alpha virt. eigenvalues --    3.03477   3.07156   3.07265   3.08616   3.08858
 Alpha virt. eigenvalues --    3.08885   3.11798   3.13727   3.15871   3.16344
 Alpha virt. eigenvalues --    3.18919   3.19204   3.20363   3.22399   3.23248
 Alpha virt. eigenvalues --    3.23472   3.26588   3.26841   3.29644   3.31748
 Alpha virt. eigenvalues --    3.35775   3.36602   3.36616   3.36633   3.46101
 Alpha virt. eigenvalues --    3.47067   3.50948   3.55818   3.58619   3.58741
 Alpha virt. eigenvalues --    3.84020   3.84087  21.33063  21.39659  21.78253
 Alpha virt. eigenvalues --   21.87048  21.87562  21.87889  21.90843  21.94613
 Alpha virt. eigenvalues --   22.10847  22.11258  22.14383  22.14439  22.17510
 Alpha virt. eigenvalues --   22.23279  22.30592  22.30984
          Condensed to atoms (all electrons):
               1          2          3          4          5          6
     1  C    5.006678   0.497428  -0.014198  -0.089713  -0.047951   0.463322
     2  C    0.497428   5.025367   0.498058  -0.039897  -0.047650  -0.039963
     3  C   -0.014198   0.498058   5.006209   0.462824  -0.048016  -0.089595
     4  C   -0.089713  -0.039897   0.462824   4.968960   0.496311  -0.032783
     5  C   -0.047951  -0.047650  -0.048016   0.496311   4.946839   0.495954
     6  C    0.463322  -0.039963  -0.089595  -0.032783   0.495954   4.968595
     7  H    0.409241  -0.035402   0.012564  -0.002527   0.009898  -0.048868
     8  H    0.012589  -0.035390   0.409268  -0.048933   0.009902  -0.002534
     9  H    0.000509   0.009832  -0.035767   0.397207  -0.037664   0.008184
    10  H    0.009978  -0.001546   0.009975  -0.036287   0.398984  -0.036340
    11  H   -0.035748   0.009844   0.000506   0.008187  -0.037732   0.397252
    12  C   -0.082683   0.245684  -0.082533   0.016730  -0.001530   0.016722
    13  H    0.004376  -0.024773   0.004409  -0.001013   0.000410  -0.001015
    14  C   -0.005114  -0.043662  -0.005096   0.001797  -0.000558   0.001796
    15  H    0.001360   0.000430   0.001374  -0.000742   0.000158  -0.000740
    16  C   -0.000501   0.008531  -0.000500   0.000142  -0.000031   0.000142
    17  H   -0.000008   0.001308  -0.000009   0.000002  -0.000001   0.000002
    18  C    0.000071  -0.001781   0.000071  -0.000004   0.000002  -0.000004
    19  H   -0.000004  -0.000200  -0.000004  -0.000001   0.000000  -0.000001
    20  C   -0.000008   0.000070  -0.000008   0.000000  -0.000000   0.000000
    21  C   -0.000000  -0.000008   0.000000  -0.000000   0.000000  -0.000000
    22  C    0.000000  -0.000008  -0.000000  -0.000000   0.000000  -0.000000
    23  C   -0.000000   0.000000  -0.000000   0.000000  -0.000000   0.000000
    24  H   -0.000000  -0.000005   0.000000  -0.000000   0.000000  -0.000000
    25  C   -0.000000   0.000000  -0.000000   0.000000  -0.000000   0.000000
    26  H    0.000000  -0.000005  -0.000000  -0.000000   0.000000  -0.000000
    27  C    0.000000  -0.000000   0.000000  -0.000000   0.000000  -0.000000
    28  H    0.000000  -0.000000  -0.000000  -0.000000  -0.000000   0.000000
    29  H   -0.000000  -0.000000   0.000000   0.000000  -0.000000  -0.000000
    30  H    0.000000   0.000000   0.000000   0.000000  -0.000000   0.000000
               7          8          9         10         11         12
     1  C    0.409241   0.012589   0.000509   0.009978  -0.035748  -0.082683
     2  C   -0.035402  -0.035390   0.009832  -0.001546   0.009844   0.245684
     3  C    0.012564   0.409268  -0.035767   0.009975   0.000506  -0.082533
     4  C   -0.002527  -0.048933   0.397207  -0.036287   0.008187   0.016730
     5  C    0.009898   0.009902  -0.037664   0.398984  -0.037732  -0.001530
     6  C   -0.048868  -0.002534   0.008184  -0.036340   0.397252   0.016722
     7  H    0.531316  -0.000153   0.000038  -0.000209  -0.004032  -0.003312
     8  H   -0.000153   0.531328  -0.004012  -0.000208   0.000038  -0.003350
     9  H    0.000038  -0.004012   0.540751  -0.004393  -0.000277  -0.000774
    10  H   -0.000209  -0.000208  -0.004393   0.536701  -0.004385  -0.000019
    11  H   -0.004032   0.000038  -0.000277  -0.004385   0.540764  -0.000773
    12  C   -0.003312  -0.003350  -0.000774  -0.000019  -0.000773   5.153240
    13  H    0.001684   0.001680   0.000014  -0.000002   0.000014   0.400289
    14  C   -0.002901  -0.002892  -0.000066   0.000003  -0.000065   0.635220
    15  H    0.000720   0.000725   0.000006  -0.000002   0.000006  -0.023432
    16  C   -0.000497  -0.000498  -0.000003   0.000000  -0.000003  -0.061503
    17  H    0.000013   0.000013   0.000000  -0.000000   0.000000  -0.000178
    18  C   -0.000018  -0.000018   0.000000  -0.000000   0.000000   0.005877
    19  H    0.000001   0.000001  -0.000000   0.000000  -0.000000   0.002156
    20  C   -0.000004  -0.000004  -0.000000   0.000000  -0.000000  -0.001785
    21  C   -0.000000   0.000000  -0.000000   0.000000   0.000000   0.000068
    22  C    0.000000  -0.000000   0.000000   0.000000  -0.000000   0.000069
    23  C   -0.000000  -0.000000  -0.000000   0.000000   0.000000  -0.000003
    24  H   -0.000000  -0.000000  -0.000000   0.000000  -0.000000  -0.000020
    25  C   -0.000000  -0.000000   0.000000   0.000000  -0.000000  -0.000003
    26  H   -0.000000  -0.000000  -0.000000   0.000000  -0.000000  -0.000020
    27  C    0.000000   0.000000  -0.000000  -0.000000  -0.000000   0.000002
    28  H   -0.000000  -0.000000  -0.000000   0.000000   0.000000   0.000000
    29  H   -0.000000  -0.000000   0.000000   0.000000  -0.000000   0.000000
    30  H    0.000000   0.000000   0.000000  -0.000000   0.000000  -0.000000
              13         14         15         16         17         18
     1  C    0.004376  -0.005114   0.001360  -0.000501  -0.000008   0.000071
     2  C   -0.024773  -0.043662   0.000430   0.008531   0.001308  -0.001781
     3  C    0.004409  -0.005096   0.001374  -0.000500  -0.000009   0.000071
     4  C   -0.001013   0.001797  -0.000742   0.000142   0.000002  -0.000004
     5  C    0.000410  -0.000558   0.000158  -0.000031  -0.000001   0.000002
     6  C   -0.001015   0.001796  -0.000740   0.000142   0.000002  -0.000004
     7  H    0.001684  -0.002901   0.000720  -0.000497   0.000013  -0.000018
     8  H    0.001680  -0.002892   0.000725  -0.000498   0.000013  -0.000018
     9  H    0.000014  -0.000066   0.000006  -0.000003   0.000000   0.000000
    10  H   -0.000002   0.000003  -0.000002   0.000000  -0.000000  -0.000000
    11  H    0.000014  -0.000065   0.000006  -0.000003   0.000000   0.000000
    12  C    0.400289   0.635220  -0.023432  -0.061503  -0.000178   0.005877
    13  H    0.515839  -0.052008   0.004626  -0.012333   0.002368   0.002253
    14  C   -0.052008   4.951872   0.393900   0.346320  -0.040555  -0.061735
    15  H    0.004626   0.393900   0.506356  -0.040512   0.002206  -0.000162
    16  C   -0.012333   0.346320  -0.040512   4.955199   0.393728   0.634974
    17  H    0.002368  -0.040555   0.002206   0.393728   0.506502  -0.023458
    18  C    0.002253  -0.061735  -0.000162   0.634974  -0.023458   5.150311
    19  H    0.000057  -0.012268   0.002276  -0.051856   0.004633   0.400510
    20  C   -0.000205   0.008644   0.001257  -0.043459   0.000270   0.245984
    21  C   -0.000004  -0.000507  -0.000009  -0.005385   0.001346  -0.082480
    22  C   -0.000004  -0.000506  -0.000009  -0.005366   0.001355  -0.082388
    23  C   -0.000001   0.000142   0.000002   0.001871  -0.000763   0.016765
    24  H    0.000001  -0.000497   0.000012  -0.003051   0.000734  -0.003097
    25  C   -0.000001   0.000142   0.000002   0.001865  -0.000765   0.016719
    26  H    0.000001  -0.000497   0.000012  -0.003044   0.000737  -0.003081
    27  C    0.000000  -0.000032  -0.000001  -0.000593   0.000166  -0.001579
    28  H   -0.000000  -0.000002   0.000000  -0.000067   0.000006  -0.000762
    29  H   -0.000000  -0.000002   0.000000  -0.000068   0.000006  -0.000762
    30  H    0.000000   0.000000  -0.000000   0.000003  -0.000002  -0.000019
              19         20         21         22         23         24
     1  C   -0.000004  -0.000008  -0.000000   0.000000  -0.000000  -0.000000
     2  C   -0.000200   0.000070  -0.000008  -0.000008   0.000000  -0.000005
     3  C   -0.000004  -0.000008   0.000000  -0.000000  -0.000000   0.000000
     4  C   -0.000001   0.000000  -0.000000  -0.000000   0.000000  -0.000000
     5  C    0.000000  -0.000000   0.000000   0.000000  -0.000000   0.000000
     6  C   -0.000001   0.000000  -0.000000  -0.000000   0.000000  -0.000000
     7  H    0.000001  -0.000004  -0.000000   0.000000  -0.000000  -0.000000
     8  H    0.000001  -0.000004   0.000000  -0.000000  -0.000000  -0.000000
     9  H   -0.000000  -0.000000  -0.000000   0.000000  -0.000000  -0.000000
    10  H    0.000000   0.000000   0.000000   0.000000   0.000000   0.000000
    11  H   -0.000000  -0.000000   0.000000  -0.000000   0.000000  -0.000000
    12  C    0.002156  -0.001785   0.000068   0.000069  -0.000003  -0.000020
    13  H    0.000057  -0.000205  -0.000004  -0.000004  -0.000001   0.000001
    14  C   -0.012268   0.008644  -0.000507  -0.000506   0.000142  -0.000497
    15  H    0.002276   0.001257  -0.000009  -0.000009   0.000002   0.000012
    16  C   -0.051856  -0.043459  -0.005385  -0.005366   0.001871  -0.003051
    17  H    0.004633   0.000270   0.001346   0.001355  -0.000763   0.000734
    18  C    0.400510   0.245984  -0.082480  -0.082388   0.016765  -0.003097
    19  H    0.515851  -0.024913   0.004402   0.004415  -0.001031   0.001694
    20  C   -0.024913   5.026946   0.496894   0.497516  -0.039740  -0.035505
    21  C    0.004402   0.496894   5.007267  -0.014019   0.462754   0.409475
    22  C    0.004415   0.497516  -0.014019   5.006721  -0.089739   0.012613
    23  C   -0.001031  -0.039740   0.462754  -0.089739   4.969425  -0.049120
    24  H    0.001694  -0.035505   0.409475   0.012613  -0.049120   0.531498
    25  C   -0.001031  -0.039750  -0.089795   0.462518  -0.032503  -0.002560
    26  H    0.001694  -0.035469   0.012626   0.409456  -0.002565  -0.000153
    27  C    0.000414  -0.048056  -0.047610  -0.047735   0.495462   0.009951
    28  H    0.000014   0.009854  -0.035675   0.000503   0.397163  -0.004051
    29  H    0.000014   0.009859   0.000498  -0.035736   0.008183   0.000038
    30  H   -0.000002  -0.001541   0.009965   0.009969  -0.036346  -0.000209
              25         26         27         28         29         30
     1  C   -0.000000   0.000000   0.000000   0.000000  -0.000000   0.000000
     2  C    0.000000  -0.000005  -0.000000  -0.000000  -0.000000   0.000000
     3  C   -0.000000  -0.000000   0.000000  -0.000000   0.000000   0.000000
     4  C    0.000000  -0.000000  -0.000000  -0.000000   0.000000   0.000000
     5  C   -0.000000   0.000000   0.000000  -0.000000  -0.000000  -0.000000
     6  C    0.000000  -0.000000  -0.000000   0.000000  -0.000000   0.000000
     7  H   -0.000000  -0.000000   0.000000  -0.000000  -0.000000   0.000000
     8  H   -0.000000  -0.000000   0.000000  -0.000000  -0.000000   0.000000
     9  H    0.000000  -0.000000  -0.000000  -0.000000   0.000000   0.000000
    10  H    0.000000   0.000000  -0.000000   0.000000   0.000000  -0.000000
    11  H   -0.000000  -0.000000  -0.000000   0.000000  -0.000000   0.000000
    12  C   -0.000003  -0.000020   0.000002   0.000000   0.000000  -0.000000
    13  H   -0.000001   0.000001   0.000000  -0.000000  -0.000000   0.000000
    14  C    0.000142  -0.000497  -0.000032  -0.000002  -0.000002   0.000000
    15  H    0.000002   0.000012  -0.000001   0.000000   0.000000  -0.000000
    16  C    0.001865  -0.003044  -0.000593  -0.000067  -0.000068   0.000003
    17  H   -0.000765   0.000737   0.000166   0.000006   0.000006  -0.000002
    18  C    0.016719  -0.003081  -0.001579  -0.000762  -0.000762  -0.000019
    19  H   -0.001031   0.001694   0.000414   0.000014   0.000014  -0.000002
    20  C   -0.039750  -0.035469  -0.048056   0.009854   0.009859  -0.001541
    21  C   -0.089795   0.012626  -0.047610  -0.035675   0.000498   0.009965
    22  C    0.462518   0.409456  -0.047735   0.000503  -0.035736   0.009969
    23  C   -0.032503  -0.002565   0.495462   0.397163   0.008183  -0.036346
    24  H   -0.002560  -0.000153   0.009951  -0.004051   0.000038  -0.000209
    25  C    4.969414  -0.049159   0.495933   0.008174   0.397168  -0.036273
    26  H   -0.049159   0.531438   0.009954   0.000038  -0.004038  -0.000208
    27  C    0.495933   0.009954   4.947494  -0.037722  -0.037683   0.399020
    28  H    0.008174   0.000038  -0.037722   0.540774  -0.000278  -0.004373
    29  H    0.397168  -0.004038  -0.037683  -0.000278   0.540823  -0.004395
    30  H   -0.036273  -0.000208   0.399020  -0.004373  -0.004395   0.536680
 Mulliken charges:
               1
     1  C   -0.129625
     2  C   -0.026262
     3  C   -0.129532
     4  C   -0.100259
     5  C   -0.137325
     6  C   -0.100126
     7  H    0.132450
     8  H    0.132449
     9  H    0.126413
    10  H    0.127750
    11  H    0.126403
    12  C   -0.214138
    13  H    0.153340
    14  C   -0.110872
    15  H    0.150181
    16  C   -0.113506
    17  H    0.150345
    18  C   -0.212188
    19  H    0.153176
    20  C   -0.026848
    21  C   -0.129804
    22  C   -0.129624
    23  C   -0.099956
    24  H    0.132250
    25  C   -0.100096
    26  H    0.132285
    27  C   -0.137387
    28  H    0.126403
    29  H    0.126374
    30  H    0.127729
 Sum of Mulliken charges =  -0.00000
 Mulliken charges with hydrogens summed into heavy atoms:
               1
     1  C    0.002825
     2  C   -0.026262
     3  C    0.002917
     4  C    0.026154
[...]

 Energy =  -1733.6019 cm^-1: |0> -> |70^1>
   -> Intensity =  583.2     (DipStr = 0.5910    )

 Energy =  -1679.0441 cm^-1: |0> -> |67^1>
   -> Intensity =  290.8     (DipStr = 0.2922    )

 Energy =   -277.2140 cm^-1: |0> -> |5^2>
   -> Intensity =  290.9     (DipStr = 0.2385    )

 Energy =   -138.6070 cm^-1: |0> -> |5^1>
   -> Intensity =  808.7     (DipStr = 0.6503    )

 Energy =      0.0000 cm^-1: |0> -> |0>
   -> Intensity =  1112.     (DipStr = 0.8768    )

     ==================================================
                       Final Spectrum
     ==================================================

 Band broadening simulated by mean of Gaussian functions with
 Half-Widths at Half-Maximum of  400.00 cm^(-1)
 
 Legend:
 -------
 1st col.: Energy (in cm^-1)
 2nd col.: Intensity at T=0K
 Intensity: Emitted intensity (in microJ.mol^-1)
 -----------------------------
    20531.4526    0.913715D+02
    20551.4526    0.920231D+02
    20571.4526    0.926619D+02
    20591.4526    0.932907D+02
    20611.4526    0.939161D+02
    20631.4526    0.945433D+02
    20651.4526    0.951781D+02
    20671.4526    0.958260D+02
    20691.4526    0.964956D+02
    20711.4526    0.971929D+02
    20731.4526    0.979255D+02
    20751.4526    0.987025D+02
    20771.4526    0.995305D+02
    20791.4526    0.100419D+03
    20811.4526    0.101377D+03
    20831.4526    0.102412D+03
    20851.4526    0.103534D+03
    20871.4526    0.104752D+03
    20891.4526    0.106074D+03
    20911.4526    0.107510D+03
    20931.4526    0.109069D+03
    20951.4526    0.110759D+03
    20971.4526    0.112587D+03
    20991.4526    0.114563D+03
    21011.4526    0.116692D+03
    21031.4526    0.118982D+03
    21051.4526    0.121439D+03
    21071.4526    0.124068D+03
    21091.4526    0.126874D+03
    21111.4526    0.129860D+03
    21131.4526    0.133029D+03
    21151.4526    0.136383D+03
    21171.4526    0.139922D+03
    21191.4526    0.143647D+03
    21211.4526    0.147555D+03
    21231.4526    0.151645D+03
    21251.4526    0.155912D+03
    21271.4526    0.160353D+03
    21291.4526    0.164961D+03
    21311.4526    0.169730D+03
    21331.4526    0.174652D+03
    21351.4526    0.179718D+03
    21371.4526    0.184919D+03
    21391.4526    0.190244D+03
    21411.4526    0.195682D+03
    21431.4526    0.201221D+03
    21451.4526    0.206849D+03
    21471.4526    0.212553D+03
    21491.4526    0.218319D+03
    21511.4526    0.224133D+03
    21531.4526    0.229980D+03
    21551.4526    0.235848D+03
    21571.4526    0.241719D+03
    21591.4526    0.247581D+03
    21611.4526    0.253417D+03
    21631.4526    0.259214D+03
    21651.4526    0.264958D+03
    21671.4526    0.270631D+03
    21691.4526    0.276224D+03
    21711.4526    0.281718D+03
    21731.4526    0.287102D+03
    21751.4526    0.292363D+03
    21771.4526    0.297486D+03
    21791.4526    0.302467D+03
    21811.4526    0.307285D+03
    21831.4526    0.311938D+03
    21851.4526    0.316408D+03
    21871.4526    0.320690D+03
    21891.4526    0.324778D+03
    21911.4526    0.328666D+03
    21931.4526    0.332341D+03
    21951.4526    0.335804D+03
    21971.4526    0.339056D+03
    21991.4526    0.342085D+03
    22011.4526    0.344895D+03
    22031.4526    0.347490D+03
    22051.4526    0.349867D+03
    22071.4526    0.352032D+03
    22091.4526    0.353992D+03
    22111.4526    0.355752D+03
    22131.4526    0.357323D+03
    22151.4526    0.358717D+03
    22171.4526    0.359947D+03
    22191.4526    0.361023D+03
    22211.4526    0.361963D+03
    22231.4526    0.362788D+03
    22251.4526    0.363516D+03
    22271.4526    0.364168D+03
    22291.4526    0.364770D+03
    22311.4526    0.365350D+03
    22331.4526    0.365930D+03
    22351.4526    0.366541D+03
    22371.4526    0.367209D+03
    22391.4526    0.367975D+03
    22411.4526    0.368863D+03
    22431.4526    0.369913D+03
    22451.4526    0.371160D+03
    22471.4526    0.372641D+03
    22491.4526    0.374395D+03
    22511.4526    0.376454D+03
    22531.4526    0.378865D+03
    22551.4526    0.381659D+03
    22571.4526    0.384876D+03
    22591.4526    0.388554D+03
    22611.4526    0.392729D+03
    22631.4526    0.397439D+03
    22651.4526    0.402713D+03
    22671.4526    0.408587D+03
    22691.4526    0.415088D+03
    22711.4526    0.422243D+03
    22731.4526    0.430075D+03
    22751.4526    0.438603D+03
    22771.4526    0.447844D+03
    22791.4526    0.457808D+03
    22811.4526    0.468505D+03
    22831.4526    0.479935D+03
    22851.4526    0.492100D+03
    22871.4526    0.504991D+03
    22891.4526    0.518594D+03
    22911.4526    0.532893D+03
    22931.4526    0.547862D+03
    22951.4526    0.563477D+03
    22971.4526    0.579702D+03
    22991.4526    0.596503D+03
    23011.4526    0.613834D+03
    23031.4526    0.631652D+03
    23051.4526    0.649904D+03
    23071.4526    0.668534D+03
    23091.4526    0.687488D+03
    23111.4526    0.706703D+03
    23131.4526    0.726120D+03
    23151.4526    0.745671D+03
    23171.4526    0.765293D+03
    23191.4526    0.784919D+03
    23211.4526    0.804483D+03
    23231.4526    0.823918D+03
    23251.4526    0.843158D+03
    23271.4526    0.862137D+03
    23291.4526    0.880794D+03
    23311.4526    0.899063D+03
    23331.4526    0.916888D+03
    23351.4526    0.934211D+03
    23371.4526    0.950981D+03
    23391.4526    0.967136D+03
    23411.4526    0.982633D+03
    23431.4526    0.997431D+03
    23451.4526    0.101148D+04
    23471.4526    0.102474D+04
    23491.4526    0.103718D+04
    23511.4526    0.104879D+04
    23531.4526    0.105951D+04
    23551.4526    0.106932D+04
    23571.4526    0.107823D+04
    23591.4526    0.108620D+04
    23611.4526    0.109322D+04
    23631.4526    0.109929D+04
    23651.4526    0.110444D+04
    23671.4526    0.110862D+04
    23691.4526    0.111187D+04
    23711.4526    0.111422D+04
    23731.4526    0.111565D+04
    23751.4526    0.111621D+04
    23771.4526    0.111593D+04
    23791.4526    0.111483D+04
    23811.4526    0.111298D+04
    23831.4526    0.111040D+04
    23851.4526    0.110717D+04
    23871.4526    0.110334D+04
    23891.4526    0.109897D+04
    23911.4526    0.109415D+04
    23931.4526    0.108894D+04
    23951.4526    0.108343D+04
    23971.4526    0.107770D+04
    23991.4526    0.107186D+04
    24011.4526    0.106600D+04
    24031.4526    0.106024D+04
    24051.4526    0.105465D+04
    24071.4526    0.104939D+04
    24091.4526    0.104455D+04
    24111.4526    0.104024D+04
    24131.4526    0.103661D+04
    24151.4526    0.103375D+04
    24171.4526    0.103182D+04
    24191.4526    0.103092D+04
    24211.4526    0.103121D+04
    24231.4526    0.103278D+04
    24251.4526    0.103576D+04
    24271.4526    0.104028D+04
    24291.4526    0.104645D+04
    24311.4526    0.105438D+04
    24331.4526    0.106417D+04
    24351.4526    0.107592D+04
    24371.4526    0.108972D+04
    24391.4526    0.110565D+04
    24411.4526    0.112377D+04
    24431.4526    0.114412D+04
    24451.4526    0.116676D+04
    24471.4526    0.119170D+04
    24491.4526    0.121894D+04
    24511.4526    0.124848D+04
    24531.4526    0.128030D+04
    24551.4526    0.131434D+04
    24571.4526    0.135053D+04
    24591.4526    0.138881D+04
    24611.4526    0.142905D+04
    24631.4526    0.147115D+04
    24651.4526    0.151495D+04
    24671.4526    0.156031D+04
    24691.4526    0.160705D+04
    24711.4526    0.165498D+04
    24731.4526    0.170390D+04
    24751.4526    0.175360D+04
    24771.4526    0.180386D+04
    24791.4526    0.185442D+04
    24811.4526    0.190508D+04
    24831.4526    0.195558D+04
    24851.4526    0.200566D+04
    24871.4526    0.205511D+04
    24891.4526    0.210366D+04
    24911.4526    0.215109D+04
    24931.4526    0.219717D+04
    24951.4526    0.224168D+04
    24971.4526    0.228440D+04
    24991.4526    0.232514D+04
    25011.4526    0.236372D+04
    25031.4526    0.239997D+04
    25051.4526    0.243373D+04
    25071.4526    0.246487D+04
    25091.4526    0.249326D+04
    25111.4526    0.251883D+04
    25131.4526    0.254143D+04
    25151.4526    0.256104D+04
    25171.4526    0.257761D+04
    25191.4526    0.259107D+04
    25211.4526    0.260145D+04
    25231.4526    0.260870D+04
    25251.4526    0.261293D+04
    25271.4526    0.261402D+04
    25291.4526    0.261210D+04
    25311.4526    0.260723D+04
    25331.4526    0.259944D+04
    25351.4526    0.258884D+04
    25371.4526    0.257551D+04
    25391.4526    0.255966D+04
    25411.4526    0.254123D+04
    25431.4526    0.252042D+04
    25451.4526    0.249744D+04
    25471.4526    0.247235D+04
    25491.4526    0.244534D+04
    25511.4526    0.241659D+04
    25531.4526    0.238628D+04
    25551.4526    0.235461D+04
    25571.4526    0.232180D+04
    25591.4526    0.228804D+04
    25611.4526    0.225357D+04
    25631.4526    0.221863D+04
    25651.4526    0.218345D+04
    25671.4526    0.214827D+04
    25691.4526    0.211336D+04
    25711.4526    0.207899D+04
    25731.4526    0.204543D+04
    25751.4526    0.201296D+04
    25771.4526    0.198190D+04
    25791.4526    0.195247D+04
    25811.4526    0.192500D+04
    25831.4526    0.189974D+04
    25851.4526    0.187700D+04
    25871.4526    0.185707D+04
    25891.4526    0.184022D+04
    25911.4526    0.182675D+04
    25931.4526    0.181689D+04
    25951.4526    0.181093D+04
    25971.4526    0.180906D+04
    25991.4526    0.181154D+04
    26011.4526    0.181856D+04
    26031.4526    0.183031D+04
    26051.4526    0.184695D+04
    26071.4526    0.186862D+04
    26091.4526    0.189544D+04
    26111.4526    0.192744D+04
    26131.4526    0.196469D+04
    26151.4526    0.200717D+04
    26171.4526    0.205485D+04
    26191.4526    0.210765D+04
    26211.4526    0.216544D+04
    26231.4526    0.222806D+04
    26251.4526    0.229528D+04
    26271.4526    0.236686D+04
    26291.4526    0.244247D+04
    26311.4526    0.252177D+04
    26331.4526    0.260434D+04
    26351.4526    0.268980D+04
    26371.4526    0.277763D+04
    26391.4526    0.286731D+04
    26411.4526    0.295835D+04
    26431.4526    0.305013D+04
    26451.4526    0.314207D+04
    26471.4526    0.323355D+04
    26491.4526    0.332401D+04
    26511.4526    0.341278D+04
    26531.4526    0.349923D+04
    26551.4526    0.358279D+04
    26571.4526    0.366285D+04
    26591.4526    0.373881D+04
    26611.4526    0.381016D+04
    26631.4526    0.387637D+04
    26651.4526    0.393698D+04
    26671.4526    0.399156D+04
    26691.4526    0.403973D+04
    26711.4526    0.408118D+04
    26731.4526    0.411560D+04
    26751.4526    0.414281D+04
    26771.4526    0.416265D+04
    26791.4526    0.417503D+04
    26811.4526    0.417988D+04
    26831.4526    0.417724D+04
    26851.4526    0.416720D+04
    26871.4526    0.414983D+04
    26891.4526    0.412532D+04
    26911.4526    0.409389D+04
    26931.4526    0.405583D+04
    26951.4526    0.401138D+04
    26971.4526    0.396088D+04
    26991.4526    0.390484D+04
    27011.4526    0.384336D+04
    27031.4526    0.377697D+04
    27051.4526    0.370608D+04
    27071.4526    0.363115D+04
    27091.4526    0.355255D+04
    27111.4526    0.347074D+04
    27131.4526    0.338637D+04
    27151.4526    0.329950D+04
    27171.4526    0.321074D+04
    27191.4526    0.312052D+04
    27211.4526    0.302928D+04
    27231.4526    0.293742D+04
    27251.4526    0.284537D+04
    27271.4526    0.275352D+04
    27291.4526    0.266230D+04
    27311.4526    0.257207D+04
    27331.4526    0.248323D+04
    27351.4526    0.239614D+04
    27371.4526    0.231119D+04
    27391.4526    0.222873D+04
    27411.4526    0.214910D+04
    27431.4526    0.207268D+04
    27451.4526    0.199977D+04
    27471.4526    0.193073D+04
    27491.4526    0.186587D+04
    27511.4526    0.180549D+04
    27531.4526    0.174990D+04
    27551.4526    0.169939D+04
    27571.4526    0.165421D+04
    27591.4526    0.161465D+04
    27611.4526    0.158094D+04
    27631.4526    0.155329D+04
    27651.4526    0.153191D+04
    27671.4526    0.151698D+04
    27691.4526    0.150863D+04
    27711.4526    0.150699D+04
    27731.4526    0.151215D+04
    27751.4526    0.152415D+04
    27771.4526    0.154301D+04
    27791.4526    0.156871D+04
    27811.4526    0.160116D+04
    27831.4526    0.164026D+04
    27851.4526    0.168583D+04
    27871.4526    0.173766D+04
    27891.4526    0.179547D+04
    27911.4526    0.185896D+04
    27931.4526    0.192770D+04
    27951.4526    0.200133D+04
    27971.4526    0.207932D+04
    27991.4526    0.216112D+04
    28011.4526    0.224618D+04
    28031.4526    0.233382D+04
    28051.4526    0.242338D+04
    28071.4526    0.251407D+04
    28091.4526    0.260529D+04
    28111.4526    0.269614D+04
    28131.4526    0.278582D+04
    28151.4526    0.287356D+04
    28171.4526    0.295848D+04
    28191.4526    0.303980D+04
    28211.4526    0.311659D+04
    28231.4526    0.318830D+04
    28251.4526    0.325405D+04
    28271.4526    0.331308D+04
    28291.4526    0.336482D+04
    28311.4526    0.340863D+04
    28331.4526    0.344399D+04
    28351.4526    0.347042D+04
    28371.4526    0.348757D+04
    28391.4526    0.349513D+04
    28411.4526    0.349292D+04
    28431.4526    0.348082D+04
    28451.4526    0.345885D+04
    28471.4526    0.342710D+04
    28491.4526    0.338575D+04
    28511.4526    0.333509D+04
    28531.4526    0.327545D+04
    28551.4526    0.320730D+04
    28571.4526    0.313115D+04
    28591.4526    0.304757D+04
    28611.4526    0.295726D+04
    28631.4526    0.286089D+04
    28651.4526    0.275921D+04
    28671.4526    0.265297D+04
    28691.4526    0.254295D+04
    28711.4526    0.242995D+04
    28731.4526    0.231474D+04
    28751.4526    0.219813D+04
    28771.4526    0.208085D+04
    28791.4526    0.196368D+04
    28811.4526    0.184728D+04
    28831.4526    0.173229D+04
    28851.4526    0.161933D+04
    28871.4526    0.150893D+04
    28891.4526    0.140159D+04
    28911.4526    0.129774D+04
    28931.4526    0.119775D+04
    28951.4526    0.110193D+04
    28971.4526    0.101053D+04
    28991.4526    0.923740D+03
    29011.4526    0.841683D+03
    29031.4526    0.764443D+03
    29051.4526    0.692051D+03
    29071.4526    0.624489D+03
    29091.4526    0.561697D+03
    29111.4526    0.503580D+03
    29131.4526    0.450008D+03
    29151.4526    0.400826D+03
    29171.4526    0.355851D+03
    29191.4526    0.314898D+03
    29211.4526    0.277747D+03
    29231.4526    0.244177D+03
    29251.4526    0.213961D+03
    29271.4526    0.186867D+03
    29291.4526    0.162667D+03
    29311.4526    0.141130D+03
    29331.4526    0.122049D+03
    29351.4526    0.105198D+03
    29371.4526    0.903758D+02
    29391.4526    0.773834D+02
    29411.4526    0.660414D+02
    29431.4526    0.561739D+02
    29451.4526    0.476219D+02
    29471.4526    0.402381D+02
    29491.4526    0.338810D+02
    29511.4526    0.284377D+02
    29531.4526    0.237773D+02
 -----------------------------

 Leave Link  718 at Mon Mar  4 16:50:12 2024, MaxMem= 14763950080 cpu:             366.3 elap:              11.5
 (Enter /apps/gaussian/g16-c01-avx2/g16/l9999.exe)

 ----------------------------------------------------------------------

 Electric dipole moment (input orientation):
 (Debye = 10**-18 statcoulomb cm , SI units = C m)
                  (au)            (Debye)         (10**-30 SI)
   Tot        0.763219D-04      0.193991D-03      0.647084D-03
   x          0.000000D+00      0.000000D+00      0.000000D+00
   y          0.353506D-04      0.898522D-04      0.299715D-03
   z          0.676415D-04      0.171927D-03      0.573488D-03

 Dipole polarizability, Alpha (input orientation).
 (esu units = cm**3 , SI units = C**2 m**2 J**-1)
 Alpha(0;0):
               (au)            (10**-24 esu)      (10**-40 SI)
   iso        0.222558D+03      0.329797D+02      0.366949D+02
   aniso      0.280118D+03      0.415092D+02      0.461852D+02
   xx         0.235316D+03      0.348702D+02      0.387983D+02
   yx        -0.100637D+03     -0.149129D+02     -0.165928D+02
   yy         0.314394D+03      0.465885D+02      0.518366D+02
   zx        -0.626539D+02     -0.928435D+01     -0.103302D+02
   zy         0.483085D+02      0.715858D+01      0.796500D+01
   zz         0.117964D+03      0.174805D+02      0.194497D+02

 ----------------------------------------------------------------------

 Dipole orientation:
     6         -5.24942343          1.33197846          1.67328326
     6         -2.94886883          1.50841528          0.39694507
     6         -1.49046610          3.67704566          0.77363886
     6         -2.30646812          5.58246739          2.36093585
     6         -4.60068461          5.37610081          3.61617038
     6         -6.06971015          3.23972306          3.26448199
     1         -6.40950372         -0.33424949          1.40759175
     1          0.30454456          3.88185158         -0.18341431
     1         -1.14498213          7.24605645          2.62432037
     1         -5.23373188          6.87258802          4.85814701
     1         -7.86272486          3.05510639          4.23201274
     6         -2.18057208         -0.56777879         -1.26029301
     1         -3.51200375         -2.12778956         -1.36163956
     6         -0.06317325         -0.73833258         -2.62721707
     1          1.31911526          0.77655791         -2.58226543
     6          0.54215838         -2.87160908         -4.21939618
     1         -0.84007886         -4.38656885         -4.26433533
     6          2.65958661         -3.04227415         -5.58622539
     1          3.99110213         -1.48230970         -5.48500379
     6          3.42794107         -5.11876860         -7.24305868
     6          5.72864237         -4.94243414         -8.51936740
     6          1.96969523         -7.28741083         -7.61955362
     6          6.54905157         -6.85030127        -10.11020840
     1          6.88854399         -3.27605977         -8.25379222
     6          2.78586638         -9.19308627         -9.20657873
     1          0.17461404         -7.49225626         -6.66259814
     6          5.08006752         -8.98685426        -10.46169534
     1          8.34204651         -6.66580267        -11.07779722
     1          1.62436337        -10.85671178         -9.46968268
     1          5.71337016        -10.48350156        -11.70334241

 Electric dipole moment (dipole orientation):
 (Debye = 10**-18 statcoulomb cm , SI units = C m)
                  (au)            (Debye)         (10**-30 SI)
   Tot        0.766254D-04      0.194762D-03      0.649658D-03
   x          0.000000D+00      0.000000D+00      0.000000D+00
   y          0.000000D+00      0.000000D+00      0.000000D+00
   z          0.766254D-04      0.194762D-03      0.649658D-03

 Dipole polarizability, Alpha (dipole orientation).
 (esu units = cm**3 , SI units = C**2 m**2 J**-1)
 Alpha(0;0):
               (au)            (10**-24 esu)      (10**-40 SI)
   iso        0.222558D+03      0.329797D+02      0.366949D+02
   aniso      0.280118D+03      0.415092D+02      0.461852D+02
   xx         0.219150D+03      0.324747D+02      0.361329D+02
   yx        -0.506045D+02     -0.749881D+01     -0.834356D+01
   yy         0.230384D+03      0.341394D+02      0.379853D+02
   zx        -0.106124D+03     -0.157260D+02     -0.174975D+02
   zy         0.110842D+03      0.164251D+02      0.182754D+02
   zz         0.218140D+03      0.323250D+02      0.359664D+02

 ----------------------------------------------------------------------

 This type of calculation cannot be archived.


 ORIGINALITY CONSISTS NOT IN SAYING WHAT NO ONE HAS EVER SAID BEFORE, 
 BUT IN SAYING WHAT YOU THINK YOUR SELF.

                                    -- JAMES F. STEPHEN
 Job cpu time:       0 days  0 hours  6 minutes 12.5 seconds.
 Elapsed time:       0 days  0 hours  0 minutes 11.7 seconds.
 File lengths (MBytes):  RWF=      6 Int=      0 D2E=      0 Chk=     14 Scr=      1
 Normal termination of Gaussian 16 at Mon Mar  4 16:50:12 2024.
