 Entering Gaussian System, Link 0=g16
 Input=DPBg_linked.gjf
 Output=DPBg_linked.log
 Initial command:
 /apps/gaussian/g16-c01-avx2/g16/l1.exe "/var/tmp/pbs.9033721.pbs/Gau-7380.inp" -scrdir="/var/tmp/pbs.9033721.pbs/"
 Entering Link 1 = /apps/gaussian/g16-c01-avx2/g16/l1.exe PID=      7381.
  
 Copyright (c) 1988-2019, Gaussian, Inc.  All Rights Reserved.
  
 This is part of the Gaussian(R) 16 program.  It is based on
 the Gaussian(R) 09 system (copyright 2009, Gaussian, Inc.),
 the Gaussian(R) 03 system (copyright 2003, Gaussian, Inc.),
 the Gaussian(R) 98 system (copyright 1998, Gaussian, Inc.),
 the Gaussian(R) 94 system (copyright 1995, Gaussian, Inc.),
 the Gaussian 92(TM) system (copyright 1992, Gaussian, Inc.),
 the Gaussian 90(TM) system (copyright 1990, Gaussian, Inc.),
 the Gaussian 88(TM) system (copyright 1988, Gaussian, Inc.),
 the Gaussian 86(TM) system (copyright 1986, Carnegie Mellon
 University), and the Gaussian 82(TM) system (copyright 1983,
 Carnegie Mellon University). Gaussian is a federally registered
 trademark of Gaussian, Inc.
  
 This software contains proprietary and confidential information,
 including trade secrets, belonging to Gaussian, Inc.
  
 This software is provided under written license and may be
 used, copied, transmitted, or stored only in accord with that
 written license.
  
 The following legend is applicable only to US Government
 contracts under FAR:
  
                    RESTRICTED RIGHTS LEGEND
  
 Use, reproduction and disclosure by the US Government is
 subject to restrictions as set forth in subparagraphs (a)
 and (c) of the Commercial Computer Software - Restricted
 Rights clause in FAR 52.227-19.
  
 Gaussian, Inc.
 340 Quinnipiac St., Bldg. 40, Wallingford CT 06492
  
  
 ---------------------------------------------------------------
 Warning -- This program may not be used in any manner that
 competes with the business of Gaussian, Inc. or will provide
 assistance to any competitor of Gaussian, Inc.  The licensee
 of this program is prohibited from giving any competitor of
 Gaussian, Inc. access to this program.  By using this program,
 the user acknowledges that Gaussian, Inc. is engaged in the
 business of creating and licensing software in the field of
 computational chemistry and represents and warrants to the
 licensee that it is not a competitor of Gaussian, Inc. and that
 it will not use this program in any manner prohibited above.
 ---------------------------------------------------------------
  

 Cite this work as:
 Gaussian 16, Revision C.01,
 M. J. Frisch, G. W. Trucks, H. B. Schlegel, G. E. Scuseria, 
 M. A. Robb, J. R. Cheeseman, G. Scalmani, V. Barone, 
 G. A. Petersson, H. Nakatsuji, X. Li, M. Caricato, A. V. Marenich, 
 J. Bloino, B. G. Janesko, R. Gomperts, B. Mennucci, H. P. Hratchian, 
 J. V. Ortiz, A. F. Izmaylov, J. L. Sonnenberg, D. Williams-Young, 
 F. Ding, F. Lipparini, F. Egidi, J. Goings, B. Peng, A. Petrone, 
 T. Henderson, D. Ranasinghe, V. G. Zakrzewski, J. Gao, N. Rega, 
 G. Zheng, W. Liang, M. Hada, M. Ehara, K. Toyota, R. Fukuda, 
 J. Hasegawa, M. Ishida, T. Nakajima, Y. Honda, O. Kitao, H. Nakai, 
 T. Vreven, K. Throssell, J. A. Montgomery, Jr., J. E. Peralta, 
 F. Ogliaro, M. J. Bearpark, J. J. Heyd, E. N. Brothers, K. N. Kudin, 
 V. N. Staroverov, T. A. Keith, R. Kobayashi, J. Normand, 
 K. Raghavachari, A. P. Rendell, J. C. Burant, S. S. Iyengar, 
 J. Tomasi, M. Cossi, J. M. Millam, M. Klene, C. Adamo, R. Cammi, 
 J. W. Ochterski, R. L. Martin, K. Morokuma, O. Farkas, 
 J. B. Foresman, and D. J. Fox, Gaussian, Inc., Wallingford CT, 2019.
 
 ******************************************
 Gaussian 16:  ES64L-G16RevC.01  3-Jul-2019
                 4-Mar-2024 
 ******************************************
 %chk=DPBg1.chk
 %NProcShared=32
 Will use up to   32 processors via shared memory.
 %Mem=110GB
 --------------------------------------------
 #p CAM-B3LYP/TZVP geom=connectivity Opt Freq
 --------------------------------------------
 1/18=20,19=15,26=3,38=1,57=2/1,3;
 2/9=110,12=2,17=6,18=5,40=1/2;
 3/5=19,7=101,11=2,25=1,30=1,71=1,74=-40/1,2,3;
 4//1;
 5/5=2,38=5/2;
 6/7=2,8=2,9=2,10=2,28=1/1;
 7//1,2,3,16;
 1/18=20,19=15,26=3/3(2);
 2/9=110/2;
 99//99;
 2/9=110/2;
 3/5=19,7=101,11=2,25=1,30=1,71=1,74=-40/1,2,3;
 4/5=5,16=3,69=1/1;
 5/5=2,38=5/2;
 7//1,2,3,16;
 1/18=20,19=15,26=3/3(-5);
 2/9=110/2;
 6/7=2,8=2,9=2,10=2,19=2,28=1/1;
 99/9=1/99;
 Leave Link    1 at Mon Mar  4 13:56:20 2024, MaxMem= 14763950080 cpu:               0.8 elap:               0.0
 (Enter /apps/gaussian/g16-c01-avx2/g16/l101.exe)
 ----------------------------------------------------------------------
 Ground state calculation for DPB molecule, later to be used for excite
 d state and FC-HT analysis.
 ----------------------------------------------------------------------
 Symbolic Z-matrix:
 Charge =  0 Multiplicity = 1
 C                    -1.86233   1.27553  -0.93454 
 C                    -0.90555   1.67825   0.0069 
 C                    -0.94967   2.9732    0.54084 
 C                    -1.95058   3.86542   0.13333 
 C                    -2.90735   3.4627   -0.80811 
 C                    -2.86323   2.16775  -1.34205 
 H                    -1.82864   0.28681  -1.34222 
 H                    -0.14134   0.99702   0.31803 
 H                    -0.21915   3.28069   1.25965 
 H                    -3.67156   4.14393  -1.11925 
 H                    -3.59375   1.86026  -2.06086 
 C                    -1.99906   5.28844   0.72008 
 H                    -2.93287   5.43598   1.2212 
 H                    -1.19666   5.41457   1.4166 
 C                    -1.87107   6.22495  -0.31457 
 H                    -2.73973   6.84918  -0.34009 
 H                    -1.77223   5.71292  -1.24889 
 C                    -0.62245   7.09257  -0.07008 
 H                    -0.14181   6.77941   0.83315 
 H                     0.05475   6.98243  -0.89115 
 C                    -1.00266   8.4365    0.04482 
 H                    -0.71555   8.80743   1.00652 
 H                    -2.06374   8.51776  -0.06657 
 C                    -0.30653   9.26256  -1.05275 
 C                     0.54958   10.31482  -0.70096 
 C                    -0.52917   8.96201  -2.40331 
 C                     1.18305   11.06652  -1.69975 
 H                     0.71956   10.54429   0.33022 
 C                     0.10431   9.71371  -3.40209 
 H                    -1.18282   8.15858  -2.6719 
 C                     0.96042   10.76597  -3.05031 
 H                     1.83671   11.86995  -1.43115 
 H                    -0.06568   9.48424  -4.43328 
 H                     1.44409   11.33992  -3.8129 
 
 ITRead=  0  0  0  0  0  0  0  0  0  0  0  0  0  0  0  0  0  0  0  0
 ITRead=  0  0  0  0  0  0  0  0  0  0  0  0  0  0
 MicOpt= -1 -1 -1 -1 -1 -1 -1 -1 -1 -1 -1 -1 -1 -1 -1 -1 -1 -1 -1 -1
 MicOpt= -1 -1 -1 -1 -1 -1 -1 -1 -1 -1 -1 -1 -1 -1
 NAtoms=     34 NQM=       34 NQMF=       0 NMMI=      0 NMMIF=      0
                NMic=       0 NMicF=      0.
                    Isotopes and Nuclear Properties:
 (Nuclear quadrupole moments (NQMom) in fm**2, nuclear magnetic moments (NMagM)
  in nuclear magnetons)

  Atom         1           2           3           4           5           6           7           8           9          10
 IAtWgt=          12          12          12          12          12          12           1           1           1           1
 AtmWgt=  12.0000000  12.0000000  12.0000000  12.0000000  12.0000000  12.0000000   1.0078250   1.0078250   1.0078250   1.0078250
 NucSpn=           0           0           0           0           0           0           1           1           1           1
 AtZEff=  -0.0000000  -0.0000000  -0.0000000  -0.0000000  -0.0000000  -0.0000000  -0.0000000  -0.0000000  -0.0000000  -0.0000000
 NQMom=    0.0000000   0.0000000   0.0000000   0.0000000   0.0000000   0.0000000   0.0000000   0.0000000   0.0000000   0.0000000
 NMagM=    0.0000000   0.0000000   0.0000000   0.0000000   0.0000000   0.0000000   2.7928460   2.7928460   2.7928460   2.7928460
 AtZNuc=   6.0000000   6.0000000   6.0000000   6.0000000   6.0000000   6.0000000   1.0000000   1.0000000   1.0000000   1.0000000

  Atom        11          12          13          14          15          16          17          18          19          20
 IAtWgt=           1          12           1           1          12           1           1          12           1           1
 AtmWgt=   1.0078250  12.0000000   1.0078250   1.0078250  12.0000000   1.0078250   1.0078250  12.0000000   1.0078250   1.0078250
 NucSpn=           1           0           1           1           0           1           1           0           1           1
 AtZEff=  -0.0000000  -0.0000000  -0.0000000  -0.0000000  -0.0000000  -0.0000000  -0.0000000  -0.0000000  -0.0000000  -0.0000000
 NQMom=    0.0000000   0.0000000   0.0000000   0.0000000   0.0000000   0.0000000   0.0000000   0.0000000   0.0000000   0.0000000
 NMagM=    2.7928460   0.0000000   2.7928460   2.7928460   0.0000000   2.7928460   2.7928460   0.0000000   2.7928460   2.7928460
 AtZNuc=   1.0000000   6.0000000   1.0000000   1.0000000   6.0000000   1.0000000   1.0000000   6.0000000   1.0000000   1.0000000

  Atom        21          22          23          24          25          26          27          28          29          30
 IAtWgt=          12           1           1          12          12          12          12           1          12           1
 AtmWgt=  12.0000000   1.0078250   1.0078250  12.0000000  12.0000000  12.0000000  12.0000000   1.0078250  12.0000000   1.0078250
 NucSpn=           0           1           1           0           0           0           0           1           0           1
 AtZEff=  -0.0000000  -0.0000000  -0.0000000  -0.0000000  -0.0000000  -0.0000000  -0.0000000  -0.0000000  -0.0000000  -0.0000000
 NQMom=    0.0000000   0.0000000   0.0000000   0.0000000   0.0000000   0.0000000   0.0000000   0.0000000   0.0000000   0.0000000
 NMagM=    0.0000000   2.7928460   2.7928460   0.0000000   0.0000000   0.0000000   0.0000000   2.7928460   0.0000000   2.7928460
 AtZNuc=   6.0000000   1.0000000   1.0000000   6.0000000   6.0000000   6.0000000   6.0000000   1.0000000   6.0000000   1.0000000

  Atom        31          32          33          34
 IAtWgt=          12           1           1           1
 AtmWgt=  12.0000000   1.0078250   1.0078250   1.0078250
 NucSpn=           0           1           1           1
 AtZEff=  -0.0000000  -0.0000000  -0.0000000  -0.0000000
 NQMom=    0.0000000   0.0000000   0.0000000   0.0000000
 NMagM=    0.0000000   2.7928460   2.7928460   2.7928460
 AtZNuc=   6.0000000   1.0000000   1.0000000   1.0000000
 Leave Link  101 at Mon Mar  4 13:56:21 2024, MaxMem= 14763950080 cpu:               6.4 elap:               0.2
 (Enter /apps/gaussian/g16-c01-avx2/g16/l103.exe)

 GradGradGradGradGradGradGradGradGradGradGradGradGradGradGradGradGradGrad
 Berny optimization.
 Initialization pass.
                           ----------------------------
                           !    Initial Parameters    !
                           ! (Angstroms and Degrees)  !
 --------------------------                            --------------------------
 ! Name  Definition              Value          Derivative Info.                !
 --------------------------------------------------------------------------------
 ! R1    R(1,2)                  1.4014         estimate D2E/DX2                !
 ! R2    R(1,6)                  1.4014         estimate D2E/DX2                !
 ! R3    R(1,7)                  1.07           estimate D2E/DX2                !
 ! R4    R(2,3)                  1.4014         estimate D2E/DX2                !
 ! R5    R(2,8)                  1.07           estimate D2E/DX2                !
 ! R6    R(3,4)                  1.4014         estimate D2E/DX2                !
 ! R7    R(3,9)                  1.07           estimate D2E/DX2                !
 ! R8    R(4,5)                  1.4014         estimate D2E/DX2                !
 ! R9    R(4,12)                 1.54           estimate D2E/DX2                !
 ! R10   R(5,6)                  1.4014         estimate D2E/DX2                !
 ! R11   R(5,10)                 1.07           estimate D2E/DX2                !
 ! R12   R(6,11)                 1.07           estimate D2E/DX2                !
 ! R13   R(12,13)                1.07           estimate D2E/DX2                !
 ! R14   R(12,14)                1.07           estimate D2E/DX2                !
 ! R15   R(12,15)                1.4014         estimate D2E/DX2                !
 ! R16   R(15,16)                1.07           estimate D2E/DX2                !
 ! R17   R(15,17)                1.07           estimate D2E/DX2                !
 ! R18   R(15,18)                1.54           estimate D2E/DX2                !
 ! R19   R(18,19)                1.07           estimate D2E/DX2                !
 ! R20   R(18,20)                1.07           estimate D2E/DX2                !
 ! R21   R(18,21)                1.4014         estimate D2E/DX2                !
 ! R22   R(21,22)                1.07           estimate D2E/DX2                !
 ! R23   R(21,23)                1.07           estimate D2E/DX2                !
 ! R24   R(21,24)                1.54           estimate D2E/DX2                !
 ! R25   R(24,25)                1.4014         estimate D2E/DX2                !
 ! R26   R(24,26)                1.4014         estimate D2E/DX2                !
 ! R27   R(25,27)                1.4014         estimate D2E/DX2                !
 ! R28   R(25,28)                1.07           estimate D2E/DX2                !
 ! R29   R(26,29)                1.4014         estimate D2E/DX2                !
 ! R30   R(26,30)                1.07           estimate D2E/DX2                !
 ! R31   R(27,31)                1.4014         estimate D2E/DX2                !
 ! R32   R(27,32)                1.07           estimate D2E/DX2                !
 ! R33   R(29,31)                1.4014         estimate D2E/DX2                !
 ! R34   R(29,33)                1.07           estimate D2E/DX2                !
 ! R35   R(31,34)                1.07           estimate D2E/DX2                !
 ! A1    A(2,1,6)              120.0            estimate D2E/DX2                !
 ! A2    A(2,1,7)              120.0            estimate D2E/DX2                !
 ! A3    A(6,1,7)              120.0            estimate D2E/DX2                !
 ! A4    A(1,2,3)              120.0            estimate D2E/DX2                !
 ! A5    A(1,2,8)              120.0            estimate D2E/DX2                !
 ! A6    A(3,2,8)              120.0            estimate D2E/DX2                !
 ! A7    A(2,3,4)              120.0            estimate D2E/DX2                !
 ! A8    A(2,3,9)              120.0            estimate D2E/DX2                !
 ! A9    A(4,3,9)              120.0            estimate D2E/DX2                !
 ! A10   A(3,4,5)              120.0            estimate D2E/DX2                !
 ! A11   A(3,4,12)             120.0            estimate D2E/DX2                !
 ! A12   A(5,4,12)             120.0            estimate D2E/DX2                !
 ! A13   A(4,5,6)              120.0            estimate D2E/DX2                !
 ! A14   A(4,5,10)             120.0            estimate D2E/DX2                !
 ! A15   A(6,5,10)             120.0            estimate D2E/DX2                !
 ! A16   A(1,6,5)              120.0            estimate D2E/DX2                !
 ! A17   A(1,6,11)             120.0            estimate D2E/DX2                !
 ! A18   A(5,6,11)             120.0            estimate D2E/DX2                !
 ! A19   A(4,12,13)            109.4712         estimate D2E/DX2                !
 ! A20   A(4,12,14)            109.4712         estimate D2E/DX2                !
 ! A21   A(4,12,15)            109.4712         estimate D2E/DX2                !
 ! A22   A(13,12,14)           109.4712         estimate D2E/DX2                !
 ! A23   A(13,12,15)           109.4712         estimate D2E/DX2                !
 ! A24   A(14,12,15)           109.4712         estimate D2E/DX2                !
 ! A25   A(12,15,16)           109.4712         estimate D2E/DX2                !
 ! A26   A(12,15,17)           109.4712         estimate D2E/DX2                !
 ! A27   A(12,15,18)           109.4712         estimate D2E/DX2                !
 ! A28   A(16,15,17)           109.4712         estimate D2E/DX2                !
 ! A29   A(16,15,18)           109.4712         estimate D2E/DX2                !
 ! A30   A(17,15,18)           109.4712         estimate D2E/DX2                !
 ! A31   A(15,18,19)           109.4712         estimate D2E/DX2                !
 ! A32   A(15,18,20)           109.4712         estimate D2E/DX2                !
 ! A33   A(15,18,21)           109.4712         estimate D2E/DX2                !
 ! A34   A(19,18,20)           109.4712         estimate D2E/DX2                !
 ! A35   A(19,18,21)           109.4712         estimate D2E/DX2                !
 ! A36   A(20,18,21)           109.4712         estimate D2E/DX2                !
 ! A37   A(18,21,22)           109.4712         estimate D2E/DX2                !
 ! A38   A(18,21,23)           109.4712         estimate D2E/DX2                !
 ! A39   A(18,21,24)           109.4712         estimate D2E/DX2                !
 ! A40   A(22,21,23)           109.4712         estimate D2E/DX2                !
 ! A41   A(22,21,24)           109.4712         estimate D2E/DX2                !
 ! A42   A(23,21,24)           109.4712         estimate D2E/DX2                !
 ! A43   A(21,24,25)           120.0            estimate D2E/DX2                !
 ! A44   A(21,24,26)           120.0            estimate D2E/DX2                !
 ! A45   A(25,24,26)           120.0            estimate D2E/DX2                !
 ! A46   A(24,25,27)           120.0            estimate D2E/DX2                !
 ! A47   A(24,25,28)           120.0            estimate D2E/DX2                !
 ! A48   A(27,25,28)           120.0            estimate D2E/DX2                !
 ! A49   A(24,26,29)           120.0            estimate D2E/DX2                !
 ! A50   A(24,26,30)           120.0            estimate D2E/DX2                !
 ! A51   A(29,26,30)           120.0            estimate D2E/DX2                !
 ! A52   A(25,27,31)           120.0            estimate D2E/DX2                !
 ! A53   A(25,27,32)           120.0            estimate D2E/DX2                !
 ! A54   A(31,27,32)           120.0            estimate D2E/DX2                !
 ! A55   A(26,29,31)           120.0            estimate D2E/DX2                !
 ! A56   A(26,29,33)           120.0            estimate D2E/DX2                !
 ! A57   A(31,29,33)           120.0            estimate D2E/DX2                !
 ! A58   A(27,31,29)           120.0            estimate D2E/DX2                !
 ! A59   A(27,31,34)           120.0            estimate D2E/DX2                !
 ! A60   A(29,31,34)           120.0            estimate D2E/DX2                !
 ! D1    D(6,1,2,3)              0.0            estimate D2E/DX2                !
 ! D2    D(6,1,2,8)           -179.9999         estimate D2E/DX2                !
 ! D3    D(7,1,2,3)            180.0            estimate D2E/DX2                !
 ! D4    D(7,1,2,8)              0.0            estimate D2E/DX2                !
 ! D5    D(2,1,6,5)              0.0            estimate D2E/DX2                !
 ! D6    D(2,1,6,11)          -179.9999         estimate D2E/DX2                !
 ! D7    D(7,1,6,5)           -179.9999         estimate D2E/DX2                !
 ! D8    D(7,1,6,11)             0.0002         estimate D2E/DX2                !
 ! D9    D(1,2,3,4)              0.0            estimate D2E/DX2                !
 ! D10   D(1,2,3,9)            180.0            estimate D2E/DX2                !
 ! D11   D(8,2,3,4)            179.9999         estimate D2E/DX2                !
 ! D12   D(8,2,3,9)             -0.0001         estimate D2E/DX2                !
 ! D13   D(2,3,4,5)              0.0            estimate D2E/DX2                !
 ! D14   D(2,3,4,12)           180.0            estimate D2E/DX2                !
 ! D15   D(9,3,4,5)            180.0            estimate D2E/DX2                !
 ! D16   D(9,3,4,12)             0.0            estimate D2E/DX2                !
 ! D17   D(3,4,5,6)              0.0001         estimate D2E/DX2                !
 ! D18   D(3,4,5,10)           180.0            estimate D2E/DX2                !
 ! D19   D(12,4,5,6)          -179.9999         estimate D2E/DX2                !
 ! D20   D(12,4,5,10)            0.0            estimate D2E/DX2                !
 ! D21   D(3,4,12,13)         -120.0            estimate D2E/DX2                !
 ! D22   D(3,4,12,14)            0.0            estimate D2E/DX2                !
 ! D23   D(3,4,12,15)          120.0            estimate D2E/DX2                !
 ! D24   D(5,4,12,13)           60.0            estimate D2E/DX2                !
 ! D25   D(5,4,12,14)          180.0            estimate D2E/DX2                !
 ! D26   D(5,4,12,15)          -60.0            estimate D2E/DX2                !
 ! D27   D(4,5,6,1)              0.0            estimate D2E/DX2                !
 ! D28   D(4,5,6,11)           179.9999         estimate D2E/DX2                !
 ! D29   D(10,5,6,1)          -179.9999         estimate D2E/DX2                !
 ! D30   D(10,5,6,11)           -0.0001         estimate D2E/DX2                !
 ! D31   D(4,12,15,16)         120.0            estimate D2E/DX2                !
 ! D32   D(4,12,15,17)           0.0            estimate D2E/DX2                !
 ! D33   D(4,12,15,18)        -120.0            estimate D2E/DX2                !
 ! D34   D(13,12,15,16)          0.0            estimate D2E/DX2                !
 ! D35   D(13,12,15,17)       -120.0            estimate D2E/DX2                !
 ! D36   D(13,12,15,18)        120.0            estimate D2E/DX2                !
 ! D37   D(14,12,15,16)       -120.0            estimate D2E/DX2                !
 ! D38   D(14,12,15,17)        120.0            estimate D2E/DX2                !
 ! D39   D(14,12,15,18)          0.0            estimate D2E/DX2                !
 ! D40   D(12,15,18,19)          0.0            estimate D2E/DX2                !
 ! D41   D(12,15,18,20)        120.0            estimate D2E/DX2                !
 ! D42   D(12,15,18,21)       -120.0            estimate D2E/DX2                !
 ! D43   D(16,15,18,19)        120.0            estimate D2E/DX2                !
 ! D44   D(16,15,18,20)       -120.0            estimate D2E/DX2                !
 ! D45   D(16,15,18,21)          0.0            estimate D2E/DX2                !
 ! D46   D(17,15,18,19)       -120.0            estimate D2E/DX2                !
 ! D47   D(17,15,18,20)          0.0            estimate D2E/DX2                !
 ! D48   D(17,15,18,21)        120.0            estimate D2E/DX2                !
 ! D49   D(15,18,21,22)        120.0            estimate D2E/DX2                !
 ! D50   D(15,18,21,23)          0.0            estimate D2E/DX2                !
 ! D51   D(15,18,21,24)       -120.0            estimate D2E/DX2                !
 ! D52   D(19,18,21,22)          0.0            estimate D2E/DX2                !
 ! D53   D(19,18,21,23)       -120.0            estimate D2E/DX2                !
 ! D54   D(19,18,21,24)        120.0            estimate D2E/DX2                !
 ! D55   D(20,18,21,22)       -120.0            estimate D2E/DX2                !
 ! D56   D(20,18,21,23)        120.0            estimate D2E/DX2                !
 ! D57   D(20,18,21,24)          0.0            estimate D2E/DX2                !
 ! D58   D(18,21,24,25)       -120.0            estimate D2E/DX2                !
 ! D59   D(18,21,24,26)         60.0            estimate D2E/DX2                !
 ! D60   D(22,21,24,25)          0.0            estimate D2E/DX2                !
 ! D61   D(22,21,24,26)        180.0            estimate D2E/DX2                !
 ! D62   D(23,21,24,25)        120.0            estimate D2E/DX2                !
 ! D63   D(23,21,24,26)        -60.0            estimate D2E/DX2                !
 ! D64   D(21,24,25,27)        179.9999         estimate D2E/DX2                !
 ! D65   D(21,24,25,28)          0.0            estimate D2E/DX2                !
 ! D66   D(26,24,25,27)         -0.0001         estimate D2E/DX2                !
 ! D67   D(26,24,25,28)       -180.0            estimate D2E/DX2                !
 ! D68   D(21,24,26,29)        180.0            estimate D2E/DX2                !
 ! D69   D(21,24,26,30)         -0.0001         estimate D2E/DX2                !
 ! D70   D(25,24,26,29)          0.0            estimate D2E/DX2                !
 ! D71   D(25,24,26,30)        179.9999         estimate D2E/DX2                !
 ! D72   D(24,25,27,31)          0.0002         estimate D2E/DX2                !
 ! D73   D(24,25,27,32)       -180.0            estimate D2E/DX2                !
 ! D74   D(28,25,27,31)       -179.9999         estimate D2E/DX2                !
 ! D75   D(28,25,27,32)          0.0            estimate D2E/DX2                !
 ! D76   D(24,26,29,31)          0.0            estimate D2E/DX2                !
 ! D77   D(24,26,29,33)       -179.9999         estimate D2E/DX2                !
 ! D78   D(30,26,29,31)       -179.9999         estimate D2E/DX2                !
 ! D79   D(30,26,29,33)          0.0001         estimate D2E/DX2                !
 ! D80   D(25,27,31,29)         -0.0002         estimate D2E/DX2                !
 ! D81   D(25,27,31,34)       -179.9999         estimate D2E/DX2                !
 ! D82   D(32,27,31,29)        180.0            estimate D2E/DX2                !
 ! D83   D(32,27,31,34)          0.0002         estimate D2E/DX2                !
 ! D84   D(26,29,31,27)          0.0001         estimate D2E/DX2                !
 ! D85   D(26,29,31,34)        179.9998         estimate D2E/DX2                !
 ! D86   D(33,29,31,27)       -180.0            estimate D2E/DX2                !
 ! D87   D(33,29,31,34)         -0.0002         estimate D2E/DX2                !
 --------------------------------------------------------------------------------
 Trust Radius=3.00D-01 FncErr=1.00D-07 GrdErr=1.00D-06 EigMax=2.50D+02 EigMin=1.00D-04
 Number of steps in this run=    192 maximum allowed number of steps=    204.
 GradGradGradGradGradGradGradGradGradGradGradGradGradGradGradGradGradGrad

 Leave Link  103 at Mon Mar  4 13:56:21 2024, MaxMem= 14763950080 cpu:               0.4 elap:               0.0
 (Enter /apps/gaussian/g16-c01-avx2/g16/l202.exe)
                          Input orientation:                          
 ---------------------------------------------------------------------
 Center     Atomic      Atomic             Coordinates (Angstroms)
 Number     Number       Type             X           Y           Z
 ---------------------------------------------------------------------
      1          6           0       -1.862331    1.275529   -0.934544
      2          6           0       -0.905552    1.678253    0.006897
      3          6           0       -0.949675    2.973199    0.540835
      4          6           0       -1.950576    3.865421    0.133333
      5          6           0       -2.907354    3.462698   -0.808109
      6          6           0       -2.863231    2.167752   -1.342047
      7          1           0       -1.828642    0.286809   -1.342218
      8          1           0       -0.141341    0.997022    0.318033
      9          1           0       -0.219153    3.280687    1.259646
     10          1           0       -3.671564    4.143929   -1.119246
     11          1           0       -3.593754    1.860263   -2.060856
     12          6           0       -1.999062    5.288438    0.720078
     13          1           0       -2.932874    5.435981    1.221204
     14          1           0       -1.196663    5.414571    1.416603
     15          6           0       -1.871072    6.224946   -0.314569
     16          1           0       -2.739734    6.849184   -0.340093
     17          1           0       -1.772234    5.712922   -1.248893
     18          6           0       -0.622451    7.092569   -0.070077
     19          1           0       -0.141809    6.779411    0.833148
     20          1           0        0.054753    6.982431   -0.891153
     21          6           0       -1.002658    8.436505    0.044817
     22          1           0       -0.715548    8.807430    1.006525
     23          1           0       -2.063738    8.517759   -0.066574
     24          6           0       -0.306532    9.262557   -1.052747
     25          6           0        0.549576   10.314817   -0.700965
     26          6           0       -0.529165    8.962005   -2.403311
     27          6           0        1.183052   11.066524   -1.699747
     28          1           0        0.719562   10.544294    0.330222
     29          6           0        0.104309    9.713714   -3.402094
     30          1           0       -1.182821    8.158581   -2.671905
     31          6           0        0.960417   10.765973   -3.050312
     32          1           0        1.836710   11.869947   -1.431154
     33          1           0       -0.065677    9.484236   -4.433280
     34          1           0        1.444091   11.339917   -3.812905
 ---------------------------------------------------------------------
                    Distance matrix (angstroms):
                    1          2          3          4          5
     1  C    0.000000
     2  C    1.401400   0.000000
     3  C    2.427296   1.401400   0.000000
     4  C    2.802800   2.427296   1.401400   0.000000
     5  C    2.427296   2.802800   2.427296   1.401400   0.000000
     6  C    1.401400   2.427296   2.802800   2.427296   1.401400
     7  H    1.070000   2.146700   3.396345   3.872800   3.396345
     8  H    2.146700   1.070000   2.146700   3.396345   3.872800
     9  H    3.396345   2.146700   1.070000   2.146700   3.396345
    10  H    3.396345   3.872800   3.396345   2.146700   1.070000
    11  H    2.146700   3.396345   3.872800   3.396345   2.146700
    12  C    4.342800   3.838989   2.548270   1.540000   2.548270
    13  H    4.806524   4.439043   3.234390   2.148263   2.830655
    14  H    4.806524   4.004010   2.605432   2.148263   3.418423
    15  C    4.988103   4.659183   3.486337   2.402976   2.991233
    16  H    5.673521   5.497560   4.359313   3.122458   3.422780
    17  H    4.449426   4.313549   3.374287   2.314220   2.558573
    18  C    6.010204   5.422259   4.177260   3.495679   4.352176
    19  H    6.031388   5.223773   3.901967   3.500388   4.619799
    20  H    6.020450   5.464704   4.374175   3.845343   4.601032
    21  C    7.278582   6.759056   5.486033   4.669174   5.393895
    22  H    7.862085   7.201425   5.857469   5.168289   6.055004
    23  H    7.296837   6.937264   5.687902   4.658005   5.178340
    24  C    8.138003   7.681363   6.519905   5.765305   6.361013
    25  C    9.358449   8.786848   7.595339   6.967174   7.675505
    26  C    7.938295   7.681395   6.686601   5.867720   6.200229
    27  C   10.282192   9.768036   8.664332   8.064470   8.680127
    28  H    9.704422   9.019547   7.755785   7.195537   8.037370
    29  C    9.008853   8.786903   7.879855   7.136128   7.407703
    30  H    7.131378   7.017657   6.104445   5.185559   5.338451
    31  C   10.124866   9.768062   8.790457   8.138003   8.562999
    32  H   11.232596  10.651696   9.529156   8.992418   9.673477
    33  H    9.102307   9.019642   8.241170   7.481837   7.581287
    34  H   10.977673  10.651736   9.730732   9.108493   9.487595
                    6          7          8          9         10
     6  C    0.000000
     7  H    2.146700   0.000000
     8  H    3.396345   2.471400   0.000000
     9  H    3.872800   4.280590   2.471400   0.000000
    10  H    2.146700   4.280590   4.942800   4.280590   0.000000
    11  H    1.070000   2.471400   4.280590   4.942800   2.471400
    12  C    3.838989   5.412800   4.693509   2.736837   2.736837
    13  H    4.154086   5.856999   5.320971   3.465696   2.773584
    14  H    4.574870   5.856999   4.672827   2.352366   3.764332
    15  C    4.301269   6.026552   5.542864   3.725003   2.867038
    16  H    4.789047   6.700680   6.436815   4.652598   2.965433
    17  H    3.710416   5.427208   5.230180   3.823689   2.466982
    18  C    5.558132   7.027916   6.126809   4.057247   4.369476
    19  H    5.779707   7.052056   5.805288   3.525472   4.818379
    20  H    5.647927   6.970078   6.109477   4.289973   4.689835
    21  C    6.684489   8.308047   7.494159   5.354638   5.186936
    22  H    7.362992   8.908229   7.861693   5.554761   5.916517
    23  H    6.525995   8.332531   7.772067   5.708614   4.777406
    24  C    7.546964   9.108494   8.380060   6.413857   6.126028
    25  C    8.856236  10.326086   9.398778   7.342610   7.488180
    26  C    7.261958   8.835926   8.425977   6.766886   5.893840
    27  C    9.782050  11.198230  10.354725   8.446505   8.475057
    28  H    9.262794  10.700766   9.586017   7.382751   7.896051
    29  C    8.366100   9.841032   9.480528   7.951118   7.105710
    30  H    6.362573   8.009365   7.830220   6.338738   4.972124
    31  C    9.563884  10.977673  10.391922   8.717605   8.308774
    32  H   10.781001  12.149559  11.188961   9.232679   9.493667
    33  H    8.420985   9.861814   9.726948   8.421222   7.245973
    34  H   10.430091  11.789244  11.249610   9.666869   9.230816
                   11         12         13         14         15
    11  H    0.000000
    12  C    4.693509   0.000000
    13  H    4.898412   1.070000   0.000000
    14  H    5.520134   1.070000   1.747303   0.000000
    15  C    5.006757   1.401400   2.026940   2.026940   0.000000
    16  H    5.346000   2.026940   2.114733   2.743203   1.070000
    17  H    4.338226   2.026940   2.743203   2.743203   1.070000
    18  C    6.337892   2.402976   3.122458   2.314220   1.540000
    19  H    6.670023   2.384360   3.121768   1.820968   2.148263
    20  H    6.396594   3.111886   3.972339   3.057771   2.148263
    21  C    7.375269   3.370329   3.756696   3.324382   2.402976
    22  H    8.121332   3.756696   4.040952   3.451250   3.122458
    23  H    7.116204   3.324382   3.451250   3.547028   2.314220
    24  C    8.161867   4.669174   5.168289   4.658005   3.495679
    25  C    9.512937   5.812005   6.294857   5.616569   4.768216
    26  C    7.742333   5.040958   5.598908   5.255624   3.695275
    27  C   10.378030   7.026214   7.561469   6.878899   5.889590
    28  H    9.986709   5.930171   6.342634   5.582670   5.077786
    29  C    8.783580   6.403088   6.992736   6.587488   5.060281
    30  H    6.771616   4.517689   5.062759   4.923990   3.125647
    31  C   10.051427   7.278582   7.862085   7.296837   6.010204
    32  H   11.405272   7.915630   8.436815   7.680035   6.845469
    33  H    8.729301   6.920968   7.522126   7.215430   5.553936
    34  H   10.877197   8.308047   8.908229   8.332530   7.027915
                   16         17         18         19         20
    16  H    0.000000
    17  H    1.747303   0.000000
    18  C    2.148263   2.148263   0.000000
    19  H    2.851417   2.851417   1.070000   0.000000
    20  H    2.851417   2.253333   1.070000   1.747303   0.000000
    21  C    2.384360   3.111886   1.401400   2.026940   2.026940
    22  H    3.121768   3.972339   2.026940   2.114733   2.743203
    23  H    1.820968   3.057771   2.026940   2.743203   2.743203
    24  C    3.500388   3.845343   2.402976   3.122458   2.314220
    25  C    4.791701   5.183480   3.486337   3.915432   3.374287
    26  C    3.688834   3.665303   2.991233   3.922809   2.558573
    27  C    5.918011   6.131724   4.659182   5.152684   4.313548
    28  H    5.105868   5.660813   3.725003   3.894771   3.823689
    29  C    5.066553   4.915691   4.301269   5.158292   3.710416
    30  H    3.094485   2.890262   2.867037   3.907840   2.466981
    31  C    6.031388   6.020450   4.988103   5.673521   4.449425
    32  H    6.880575   7.139093   5.542864   5.912289   5.230180
    33  H    5.554121   5.222592   5.006756   5.920907   4.338225
    34  H    7.052056   6.970077   6.026551   6.700679   5.427208
                   21         22         23         24         25
    21  C    0.000000
    22  H    1.070000   0.000000
    23  H    1.070000   1.747303   0.000000
    24  C    1.540000   2.148263   2.148263   0.000000
    25  C    2.548270   2.605432   3.234390   1.401400   0.000000
    26  C    2.548270   3.418423   2.830655   1.401400   2.427296
    27  C    3.838989   4.004010   4.439043   2.427296   1.401400
    28  H    2.736837   2.352366   3.465696   2.146700   1.070000
    29  C    3.838989   4.574870   4.154086   2.427296   2.802800
    30  H    2.736837   3.764332   2.773584   2.146700   3.396345
    31  C    4.342800   4.806524   4.806524   2.802800   2.427296
    32  H    4.693509   4.672827   5.320971   3.396345   2.146700
    33  H    4.693509   5.520134   4.898413   3.396345   3.872800
    34  H    5.412800   5.856999   5.856999   3.872800   3.396345
                   26         27         28         29         30
    26  C    0.000000
    27  C    2.802800   0.000000
    28  H    3.396345   2.146700   0.000000
    29  C    1.401400   2.427296   3.872800   0.000000
    30  H    1.070000   3.872800   4.280590   2.146700   0.000000
    31  C    2.427296   1.401400   3.396345   1.401400   3.396345
    32  H    3.872800   1.070000   2.471400   3.396345   4.942800
    33  H    2.146700   3.396345   4.942800   1.070000   2.471400
    34  H    3.396345   2.146700   4.280590   2.146700   4.280590
                   31         32         33         34
    31  C    0.000000
    32  H    2.146700   0.000000
    33  H    2.146700   4.280590   0.000000
    34  H    1.070000   2.471400   2.471400   0.000000
 Stoichiometry    C16H18
 Framework group  C1[X(C16H18)]
 Deg. of freedom    96
 Full point group                 C1      NOp   1
 Largest Abelian subgroup         C1      NOp   1
 Largest concise Abelian subgroup C1      NOp   1
                         Standard orientation:                         
 ---------------------------------------------------------------------
 Center     Atomic      Atomic             Coordinates (Angstroms)
 Number     Number       Type             X           Y           Z
 ---------------------------------------------------------------------
      1          6           0        5.077403    1.078911    0.593663
      2          6           0        4.604485    0.057004    1.427916
      3          6           0        3.504049   -0.716190    1.034046
      4          6           0        2.876531   -0.467477   -0.194077
      5          6           0        3.349448    0.554431   -1.028329
      6          6           0        4.449885    1.327624   -0.634459
      7          1           0        5.917610    1.669262    0.894392
      8          1           0        5.083608   -0.132893    2.365615
      9          1           0        3.142966   -1.496439    1.671016
     10          1           0        2.870325    0.744328   -1.966028
     11          1           0        4.810969    2.107872   -1.271430
     12          6           0        1.667261   -1.317141   -0.626901
     13          1           0        1.893153   -1.817133   -1.545531
     14          1           0        1.451446   -2.042006    0.129997
     15          6           0        0.553628   -0.486116   -0.808949
     16          1           0        0.212665   -0.563105   -1.820243
     17          1           0        0.826980    0.527239   -0.600884
     18          6           0       -0.572833   -0.920570    0.147051
     19          1           0       -0.244330   -1.756317    0.728870
     20          1           0       -0.821262   -0.108456    0.797937
     21          6           0       -1.702786   -1.284972   -0.597488
     22          1           0       -1.949446   -2.306205   -0.394651
     23          1           0       -1.495278   -1.168597   -1.640703
     24          6           0       -2.888144   -0.383096   -0.206149
     25          6           0       -4.054502   -0.950050    0.324974
     26          6           0       -2.800460    1.004567   -0.381153
     27          6           0       -5.133177   -0.129343    0.681095
     28          1           0       -4.121450   -2.009562    0.458594
     29          6           0       -3.879136    1.825274   -0.025035
     30          1           0       -1.909919    1.437450   -0.786676
     31          6           0       -5.045494    1.258320    0.506088
     32          1           0       -6.023717   -0.562225    1.086619
     33          1           0       -3.812188    2.884785   -0.158655
     34          1           0       -5.869086    1.884948    0.777995
 ---------------------------------------------------------------------
 Rotational constants (GHZ):           1.4520691           0.1810460           0.1738613
 Leave Link  202 at Mon Mar  4 13:56:21 2024, MaxMem= 14763950080 cpu:               0.6 elap:               0.0
 (Enter /apps/gaussian/g16-c01-avx2/g16/l301.exe)
 Standard basis: TZVP (5D, 7F)
 Ernie: Thresh=  0.10000D-02 Tol=  0.10000D-05 Strict=F.
 There are   428 symmetry adapted cartesian basis functions of A   symmetry.
 There are   412 symmetry adapted basis functions of A   symmetry.
   412 basis functions,   704 primitive gaussians,   428 cartesian basis functions
    57 alpha electrons       57 beta electrons
       nuclear repulsion energy       963.5999155827 Hartrees.
 IExCor=20419 DFT=T Ex+Corr=CAM-B3LYP ExCW=0 ScaHFX=  1.000000
 ScaDFX=  1.000000  1.000000  1.000000  0.810000 ScalE2=  1.000000  1.000000
 IRadAn=      5 IRanWt=     -1 IRanGd=            0 ICorTp=0 IEmpDi=  4
 HFx  wShort=  0.000000 wLong=  0.330000 cFull=  0.190000 cShort=  0.000000 cLong=  0.460000
 DFx  wShort=  0.000000 wLong=  0.330000 cFull=  0.190000 cShort=  0.000000 cLong=  0.460000
 NAtoms=   34 NActive=   34 NUniq=   34 SFac= 1.00D+00 NAtFMM=   60 NAOKFM=F Big=F
 Integral buffers will be    131072 words long.
 Raffenetti 2 integral format.
 Two-electron integral symmetry is turned on.
 Leave Link  301 at Mon Mar  4 13:56:21 2024, MaxMem= 14763950080 cpu:               1.0 elap:               0.0
 (Enter /apps/gaussian/g16-c01-avx2/g16/l302.exe)
 NPDir=0 NMtPBC=     1 NCelOv=     1 NCel=       1 NClECP=     1 NCelD=      1
         NCelK=      1 NCelE2=     1 NClLst=     1 CellRange=     0.0.
 One-electron integrals computed using PRISM.
 One-electron integral symmetry used in STVInt
 NBasis=   412 RedAO= T EigKep=  9.30D-06  NBF=   412
 NBsUse=   412 1.00D-06 EigRej= -1.00D+00 NBFU=   412
 Precomputing XC quadrature grid using
 IXCGrd= 4 IRadAn=           5 IRanWt=          -1 IRanGd=           0 AccXCQ= 0.00D+00.
 Generated NRdTot=       0 NPtTot=           0 NUsed=           0 NTot=          32
 NSgBfM=   418   418   418   418   418 MxSgAt=    34 MxSgA2=    34.
 Leave Link  302 at Mon Mar  4 13:56:22 2024, MaxMem= 14763950080 cpu:              15.1 elap:               0.5
 (Enter /apps/gaussian/g16-c01-avx2/g16/l303.exe)
 DipDrv:  MaxL=1.
 Leave Link  303 at Mon Mar  4 13:56:23 2024, MaxMem= 14763950080 cpu:               1.7 elap:               0.1
 (Enter /apps/gaussian/g16-c01-avx2/g16/l401.exe)
 ExpMin= 9.52D-02 ExpMax= 1.36D+04 ExpMxC= 4.63D+02 IAcc=3 IRadAn=         5 AccDes= 0.00D+00
 Harris functional with IExCor=20419 and IRadAn=       5 diagonalized for initial guess.
 HarFok:  IExCor=20419 AccDes= 0.00D+00 IRadAn=         5 IDoV= 1 UseB2=F ITyADJ=14
 ICtDFT=  3500011 ScaDFX=  1.000000  1.000000  1.000000  1.000000
 FoFCou: FMM=F IPFlag=           0 FMFlag=      100000 FMFlg1=           0
         NFxFlg=           0 DoJE=T BraDBF=F KetDBF=T FulRan=T
         wScrn=  0.000000 ICntrl=       500 IOpCl=  0 I1Cent=   200000004 NGrid=           0
         NMat0=    1 NMatS0=      1 NMatT0=    0 NMatD0=    1 NMtDS0=    0 NMtDT0=    0
 Petite list used in FoFCou.
 Harris En= -594.237673069782    
 JPrj=0 DoOrth=F DoCkMO=F.
 Leave Link  401 at Mon Mar  4 13:56:25 2024, MaxMem= 14763950080 cpu:              61.0 elap:               2.0
 (Enter /apps/gaussian/g16-c01-avx2/g16/l502.exe)
 Integral symmetry usage will be decided dynamically.
 Closed shell SCF:
 Using DIIS extrapolation, IDIIS=  1040.
 NGot= 14763950080 LenX= 14763564818 LenY= 14763381193
 Requested convergence on RMS density matrix=1.00D-08 within 128 cycles.
 Requested convergence on MAX density matrix=1.00D-06.
 Requested convergence on             energy=1.00D-06.
 No special actions if energy rises.
 Fock matrices will be formed incrementally for  20 cycles.
 Integral accuracy reduced to 1.0D-05 until final iterations.

 Cycle   1  Pass 0  IDiag  1:
 FoFJK:  IHMeth= 1 ICntrl=       0 DoSepK=T KAlg= 0 I1Cent=           0 FoldK=F
 IRaf=         1 NMat=       1 IRICut=       1 DoRegI=T DoRafI=F ISym2E= 0 IDoP0=0 IntGTp=1.
 FoFCou: FMM=F IPFlag=           0 FMFlag=      100000 FMFlg1=           0
         NFxFlg=           0 DoJE=T BraDBF=F KetDBF=F FulRan=T
         wScrn=  0.000000 ICntrl=       500 IOpCl=  0 I1Cent=           0 NGrid=           0
         NMat0=    1 NMatS0=      1 NMatT0=    0 NMatD0=    1 NMtDS0=    0 NMtDT0=    0
 Symmetry not used in FoFCou.
 E= -620.143577987994    
 DIIS: error= 4.08D-02 at cycle   1 NSaved=   1.
 NSaved= 1 IEnMin= 1 EnMin= -620.143577987994     IErMin= 1 ErrMin= 4.08D-02
 ErrMax= 4.08D-02  0.00D+00 EMaxC= 1.00D-01 BMatC= 1.05D+00 BMatP= 1.05D+00
 IDIUse=3 WtCom= 5.92D-01 WtEn= 4.08D-01
 Coeff-Com:  0.100D+01
 Coeff-En:   0.100D+01
 Coeff:      0.100D+01
 Gap=     0.319 Goal=   None    Shift=    0.000
 GapD=    0.319 DampG=1.000 DampE=0.500 DampFc=0.5000 IDamp=-1.
 Damping current iteration by 5.00D-01
 RMSDP=2.91D-03 MaxDP=9.99D-02              OVMax= 7.54D-02

 Cycle   2  Pass 0  IDiag  1:
 RMSU=  1.41D-03    CP:  9.64D-01
 E= -620.233014322311     Delta-E=       -0.089436334317 Rises=F Damp=T
 DIIS: error= 1.97D-02 at cycle   2 NSaved=   2.
 NSaved= 2 IEnMin= 2 EnMin= -620.233014322311     IErMin= 2 ErrMin= 1.97D-02
 ErrMax= 1.97D-02  0.00D+00 EMaxC= 1.00D-01 BMatC= 2.28D-01 BMatP= 1.05D+00
 IDIUse=3 WtCom= 8.03D-01 WtEn= 1.97D-01
 Coeff-Com: -0.759D+00 0.176D+01
 Coeff-En:   0.000D+00 0.100D+01
 Coeff:     -0.609D+00 0.161D+01
 Gap=     0.346 Goal=   None    Shift=    0.000
 RMSDP=1.63D-03 MaxDP=4.67D-02 DE=-8.94D-02 OVMax= 5.27D-02

 Cycle   3  Pass 0  IDiag  1:
 RMSU=  1.22D-03    CP:  9.39D-01  1.75D+00
 E= -620.301365684914     Delta-E=       -0.068351362603 Rises=F Damp=F
 DIIS: error= 5.37D-03 at cycle   3 NSaved=   3.
 NSaved= 3 IEnMin= 3 EnMin= -620.301365684914     IErMin= 3 ErrMin= 5.37D-03
 ErrMax= 5.37D-03  0.00D+00 EMaxC= 1.00D-01 BMatC= 1.81D-02 BMatP= 2.28D-01
 IDIUse=3 WtCom= 9.46D-01 WtEn= 5.37D-02
 Coeff-Com: -0.335D+00 0.722D+00 0.613D+00
 Coeff-En:   0.000D+00 0.000D+00 0.100D+01
 Coeff:     -0.317D+00 0.683D+00 0.634D+00
 Gap=     0.323 Goal=   None    Shift=    0.000
 RMSDP=5.76D-04 MaxDP=1.51D-02 DE=-6.84D-02 OVMax= 2.06D-02

 Cycle   4  Pass 0  IDiag  1:
 RMSU=  3.50D-04    CP:  9.31D-01  1.85D+00  6.48D-01
 E= -620.317868875818     Delta-E=       -0.016503190903 Rises=F Damp=F
 DIIS: error= 5.45D-04 at cycle   4 NSaved=   4.
 NSaved= 4 IEnMin= 4 EnMin= -620.317868875818     IErMin= 4 ErrMin= 5.45D-04
 ErrMax= 5.45D-04  0.00D+00 EMaxC= 1.00D-01 BMatC= 2.23D-04 BMatP= 1.81D-02
 IDIUse=3 WtCom= 9.95D-01 WtEn= 5.45D-03
 Coeff-Com: -0.126D+00 0.272D+00 0.262D+00 0.592D+00
 Coeff-En:   0.000D+00 0.000D+00 0.000D+00 0.100D+01
 Coeff:     -0.125D+00 0.270D+00 0.261D+00 0.594D+00
 Gap=     0.322 Goal=   None    Shift=    0.000
 RMSDP=1.05D-04 MaxDP=2.28D-03 DE=-1.65D-02 OVMax= 2.76D-03

 Cycle   5  Pass 0  IDiag  1:
 RMSU=  8.38D-05    CP:  9.30D-01  1.85D+00  6.95D-01  9.30D-01
 E= -620.318073542028     Delta-E=       -0.000204666210 Rises=F Damp=F
 DIIS: error= 2.06D-04 at cycle   5 NSaved=   5.
 NSaved= 5 IEnMin= 5 EnMin= -620.318073542028     IErMin= 5 ErrMin= 2.06D-04
 ErrMax= 2.06D-04  0.00D+00 EMaxC= 1.00D-01 BMatC= 1.35D-05 BMatP= 2.23D-04
 IDIUse=3 WtCom= 9.98D-01 WtEn= 2.06D-03
 Coeff-Com:  0.718D-02-0.157D-01-0.669D-02 0.191D+00 0.824D+00
 Coeff-En:   0.000D+00 0.000D+00 0.000D+00 0.000D+00 0.100D+01
 Coeff:      0.717D-02-0.157D-01-0.668D-02 0.191D+00 0.825D+00
 Gap=     0.322 Goal=   None    Shift=    0.000
 RMSDP=9.73D-05 MaxDP=3.40D-03 DE=-2.05D-04 OVMax= 1.38D-03

 Cycle   6  Pass 0  IDiag  1:
 RMSU=  6.14D-05    CP:  9.29D-01  1.84D+00  6.95D-01  1.09D+00  1.51D+00
 E= -620.318093352145     Delta-E=       -0.000019810117 Rises=F Damp=F
 DIIS: error= 1.12D-04 at cycle   6 NSaved=   6.
 NSaved= 6 IEnMin= 6 EnMin= -620.318093352145     IErMin= 6 ErrMin= 1.12D-04
 ErrMax= 1.12D-04  0.00D+00 EMaxC= 1.00D-01 BMatC= 2.67D-06 BMatP= 1.35D-05
 IDIUse=3 WtCom= 9.99D-01 WtEn= 1.12D-03
 Coeff-Com:  0.116D-01-0.252D-01-0.197D-01 0.626D-01 0.430D+00 0.541D+00
 Coeff-En:   0.000D+00 0.000D+00 0.000D+00 0.000D+00 0.000D+00 0.100D+01
 Coeff:      0.116D-01-0.252D-01-0.196D-01 0.625D-01 0.429D+00 0.541D+00
 Gap=     0.322 Goal=   None    Shift=    0.000
 RMSDP=5.34D-05 MaxDP=1.73D-03 DE=-1.98D-05 OVMax= 4.52D-04

 Cycle   7  Pass 0  IDiag  1:
 RMSU=  1.81D-05    CP:  9.28D-01  1.83D+00  6.92D-01  1.16D+00  1.80D+00
                    CP:  1.53D+00
 E= -620.318102919835     Delta-E=       -0.000009567690 Rises=F Damp=F
 DIIS: error= 1.88D-05 at cycle   7 NSaved=   7.
 NSaved= 7 IEnMin= 7 EnMin= -620.318102919835     IErMin= 7 ErrMin= 1.88D-05
 ErrMax= 1.88D-05  0.00D+00 EMaxC= 1.00D-01 BMatC= 8.73D-08 BMatP= 2.67D-06
 IDIUse=1 WtCom= 1.00D+00 WtEn= 0.00D+00
 Coeff-Com:  0.288D-02-0.623D-02-0.502D-02 0.214D-02 0.539D-01 0.152D+00
 Coeff-Com:  0.801D+00
 Coeff:      0.288D-02-0.623D-02-0.502D-02 0.214D-02 0.539D-01 0.152D+00
 Coeff:      0.801D+00
 Gap=     0.322 Goal=   None    Shift=    0.000
 RMSDP=5.72D-05 MaxDP=1.40D-03 DE=-9.57D-06 OVMax= 1.01D-04

 Cycle   8  Pass 0  IDiag  1:
 RMSU=  1.87D-05    CP:  9.27D-01  1.82D+00  6.95D-01  1.21D+00  2.12D+00
                    CP:  2.10D+00  2.32D+00
 E= -620.318114264495     Delta-E=       -0.000011344660 Rises=F Damp=F
 DIIS: error= 1.40D-05 at cycle   8 NSaved=   8.
 NSaved= 8 IEnMin= 8 EnMin= -620.318114264495     IErMin= 8 ErrMin= 1.40D-05
 ErrMax= 1.40D-05  0.00D+00 EMaxC= 1.00D-01 BMatC= 1.98D-08 BMatP= 8.73D-08
 IDIUse=1 WtCom= 1.00D+00 WtEn= 0.00D+00
 Coeff-Com: -0.295D-03 0.652D-03 0.546D-03-0.369D-02-0.195D-01-0.169D-01
 Coeff-Com:  0.133D+00 0.906D+00
 Coeff:     -0.295D-03 0.652D-03 0.546D-03-0.369D-02-0.195D-01-0.169D-01
 Coeff:      0.133D+00 0.906D+00
 Gap=     0.322 Goal=   None    Shift=    0.000
 RMSDP=5.66D-05 MaxDP=1.36D-03 DE=-1.13D-05 OVMax= 3.00D-05

 Cycle   9  Pass 0  IDiag  1:
 RMSU=  2.27D-05    CP:  9.27D-01  1.83D+00  7.09D-01  1.24D+00  2.23D+00
                    CP:  2.22D+00  3.00D+00  3.00D+00
 E= -620.318124379229     Delta-E=       -0.000010114734 Rises=F Damp=F
 DIIS: error= 1.03D-05 at cycle   9 NSaved=   9.
 NSaved= 9 IEnMin= 9 EnMin= -620.318124379229     IErMin= 9 ErrMin= 1.03D-05
 ErrMax= 1.03D-05  0.00D+00 EMaxC= 1.00D-01 BMatC= 1.09D-08 BMatP= 1.98D-08
 IDIUse=1 WtCom= 1.00D+00 WtEn= 0.00D+00
 Coeff-Com:  0.117D-03-0.249D-03-0.199D-03-0.340D-03 0.686D-03 0.270D-02
 Coeff-Com:  0.501D-01 0.305D+00 0.642D+00
 Coeff:      0.117D-03-0.249D-03-0.199D-03-0.340D-03 0.686D-03 0.270D-02
 Coeff:      0.501D-01 0.305D+00 0.642D+00
 Gap=     0.322 Goal=   None    Shift=    0.000
 RMSDP=5.82D-05 MaxDP=2.12D-03 DE=-1.01D-05 OVMax= 1.69D-05

 Cycle  10  Pass 0  IDiag  1:
 RMSU=  2.87D-05    CP:  9.27D-01  1.85D+00  7.22D-01  1.23D+00  2.06D+00
                    CP:  1.80D+00  3.00D+00  3.00D+00  2.16D+00
 E= -620.318123471192     Delta-E=        0.000000908037 Rises=F Damp=F
 DIIS: error= 1.33D-05 at cycle  10 NSaved=  10.
 NSaved=10 IEnMin= 9 EnMin= -620.318124379229     IErMin= 9 ErrMin= 1.03D-05
 ErrMax= 1.33D-05  0.00D+00 EMaxC= 1.00D-01 BMatC= 1.70D-08 BMatP= 1.09D-08
 IDIUse=1 WtCom= 1.00D+00 WtEn= 0.00D+00
 Coeff-Com:  0.482D-03-0.104D-02-0.836D-03-0.876D-03 0.409D-02 0.234D-01
 Coeff-Com:  0.193D+00 0.258D+00-0.541D-01 0.578D+00
 Coeff:      0.482D-03-0.104D-02-0.836D-03-0.876D-03 0.409D-02 0.234D-01
 Coeff:      0.193D+00 0.258D+00-0.541D-01 0.578D+00
 Gap=     0.322 Goal=   None    Shift=    0.000
 RMSDP=3.10D-05 MaxDP=7.07D-04 DE= 9.08D-07 OVMax= 1.70D-05

 Cycle  11  Pass 0  IDiag  1:
 RMSU=  1.72D-05    CP:  9.28D-01  1.86D+00  7.22D-01  1.19D+00  1.92D+00
                    CP:  1.52D+00  3.00D+00  3.00D+00  1.86D+00  9.60D-01
 E= -620.318116437893     Delta-E=        0.000007033299 Rises=F Damp=F
 DIIS: error= 1.04D-05 at cycle  11 NSaved=  11.
 NSaved=11 IEnMin= 9 EnMin= -620.318124379229     IErMin= 9 ErrMin= 1.03D-05
 ErrMax= 1.04D-05  0.00D+00 EMaxC= 1.00D-01 BMatC= 8.65D-09 BMatP= 1.09D-08
 IDIUse=1 WtCom= 1.00D+00 WtEn= 0.00D+00
 Coeff-Com:  0.449D-04-0.884D-04-0.628D-04-0.213D-02-0.798D-02 0.125D-02
 Coeff-Com:  0.133D+00 0.329D+00-0.373D+00-0.128D+00 0.105D+01
 Coeff:      0.449D-04-0.884D-04-0.628D-04-0.213D-02-0.798D-02 0.125D-02
 Coeff:      0.133D+00 0.329D+00-0.373D+00-0.128D+00 0.105D+01
 Gap=     0.322 Goal=   None    Shift=    0.000
 RMSDP=2.81D-05 MaxDP=6.75D-04 DE= 7.03D-06 OVMax= 1.78D-05

 Cycle  12  Pass 0  IDiag  1:
 RMSU=  1.25D-05    CP:  9.28D-01  1.85D+00  7.21D-01  1.18D+00  1.80D+00
                    CP:  1.34D+00  2.24D+00  3.00D+00  1.97D+00  7.03D-01
                    CP:  1.67D+00
 E= -620.318108991201     Delta-E=        0.000007446691 Rises=F Damp=F
 DIIS: error= 4.91D-06 at cycle  12 NSaved=  12.
 NSaved=12 IEnMin= 9 EnMin= -620.318124379229     IErMin=12 ErrMin= 4.91D-06
 ErrMax= 4.91D-06  0.00D+00 EMaxC= 1.00D-01 BMatC= 2.61D-09 BMatP= 8.65D-09
 IDIUse=1 WtCom= 1.00D+00 WtEn= 0.00D+00
 Coeff-Com: -0.278D-04 0.651D-04 0.498D-04-0.117D-02-0.523D-02-0.340D-02
 Coeff-Com:  0.518D-01 0.179D+00-0.161D+00-0.975D-01 0.197D+00 0.841D+00
 Coeff:     -0.278D-04 0.651D-04 0.498D-04-0.117D-02-0.523D-02-0.340D-02
 Coeff:      0.518D-01 0.179D+00-0.161D+00-0.975D-01 0.197D+00 0.841D+00
 Gap=     0.322 Goal=   None    Shift=    0.000
 RMSDP=1.51D-05 MaxDP=3.86D-04 DE= 7.45D-06 OVMax= 1.08D-05

 Cycle  13  Pass 0  IDiag  1:
 RMSU=  7.00D-06    CP:  9.28D-01  1.85D+00  7.22D-01  1.18D+00  1.74D+00
                    CP:  1.30D+00  2.06D+00  3.00D+00  2.12D+00  7.20D-01
                    CP:  2.04D+00  1.70D+00
 E= -620.318107009852     Delta-E=        0.000001981349 Rises=F Damp=F
 DIIS: error= 4.43D-06 at cycle  13 NSaved=  13.
 NSaved=13 IEnMin= 9 EnMin= -620.318124379229     IErMin=13 ErrMin= 4.43D-06
 ErrMax= 4.43D-06  0.00D+00 EMaxC= 1.00D-01 BMatC= 1.57D-09 BMatP= 2.61D-09
 IDIUse=1 WtCom= 1.00D+00 WtEn= 0.00D+00
 Coeff-Com:  0.149D-04-0.296D-04-0.231D-04-0.608D-03-0.222D-02-0.303D-03
 Coeff-Com:  0.387D-01 0.118D+00-0.947D-01-0.434D-02 0.137D-01 0.125D+00
 Coeff-Com:  0.806D+00
 Coeff:      0.149D-04-0.296D-04-0.231D-04-0.608D-03-0.222D-02-0.303D-03
 Coeff:      0.387D-01 0.118D+00-0.947D-01-0.434D-02 0.137D-01 0.125D+00
 Coeff:      0.806D+00
 Gap=     0.322 Goal=   None    Shift=    0.000
 RMSDP=1.15D-05 MaxDP=2.55D-04 DE= 1.98D-06 OVMax= 9.39D-06

 Cycle  14  Pass 0  IDiag  1:
 RMSU=  5.64D-06    CP:  9.28D-01  1.85D+00  7.22D-01  1.18D+00  1.69D+00
                    CP:  1.27D+00  2.06D+00  3.00D+00  2.12D+00  7.13D-01
                    CP:  2.26D+00  2.00D+00  2.03D+00
 E= -620.318106614600     Delta-E=        0.000000395252 Rises=F Damp=F
 DIIS: error= 4.84D-06 at cycle  14 NSaved=  14.
 NSaved=14 IEnMin= 9 EnMin= -620.318124379229     IErMin=13 ErrMin= 4.43D-06
 ErrMax= 4.84D-06  0.00D+00 EMaxC= 1.00D-01 BMatC= 1.64D-09 BMatP= 1.57D-09
 IDIUse=1 WtCom= 1.00D+00 WtEn= 0.00D+00
 Coeff-Com: -0.250D-05 0.808D-05 0.607D-05-0.659D-03-0.271D-02-0.118D-02
 Coeff-Com:  0.341D-01 0.118D+00-0.705D-01-0.230D-01 0.489D-01 0.169D-01
 Coeff-Com:  0.487D+00 0.393D+00
 Coeff:     -0.250D-05 0.808D-05 0.607D-05-0.659D-03-0.271D-02-0.118D-02
 Coeff:      0.341D-01 0.118D+00-0.705D-01-0.230D-01 0.489D-01 0.169D-01
 Coeff:      0.487D+00 0.393D+00
 Gap=     0.322 Goal=   None    Shift=    0.000
 RMSDP=6.66D-06 MaxDP=2.09D-04 DE= 3.95D-07 OVMax= 4.00D-06

 Initial convergence to 1.0D-05 achieved.  Increase integral accuracy.
 Cycle  15  Pass 1  IDiag  1:
 E= -620.318002157939     Delta-E=        0.000104456660 Rises=F Damp=F
 DIIS: error= 5.06D-04 at cycle   1 NSaved=   1.
 NSaved= 1 IEnMin= 1 EnMin= -620.318002157939     IErMin= 1 ErrMin= 5.06D-04
 ErrMax= 5.06D-04  0.00D+00 EMaxC= 1.00D-01 BMatC= 2.61D-05 BMatP= 2.61D-05
 IDIUse=3 WtCom= 9.95D-01 WtEn= 5.06D-03
 Coeff-Com:  0.100D+01
 Coeff-En:   0.100D+01
 Coeff:      0.100D+01
 Gap=     0.322 Goal=   None    Shift=    0.000
 RMSDP=6.66D-06 MaxDP=2.09D-04 DE= 1.04D-04 OVMax= 1.02D-03

 Cycle  16  Pass 1  IDiag  1:
 RMSU=  2.18D-03    CP:  9.35D-01
 E= -620.318031681539     Delta-E=       -0.000029523599 Rises=F Damp=F
 DIIS: error= 2.29D-05 at cycle   2 NSaved=   2.
 NSaved= 2 IEnMin= 2 EnMin= -620.318031681539     IErMin= 2 ErrMin= 2.29D-05
 ErrMax= 2.29D-05  0.00D+00 EMaxC= 1.00D-01 BMatC= 3.46D-08 BMatP= 2.61D-05
 IDIUse=1 WtCom= 1.00D+00 WtEn= 0.00D+00
 Coeff-Com: -0.291D-01 0.103D+01
 Coeff:     -0.291D-01 0.103D+01
 Gap=     0.322 Goal=   None    Shift=    0.000
 RMSDP=7.98D-05 MaxDP=1.74D-03 DE=-2.95D-05 OVMax= 5.95D-05

 Cycle  17  Pass 1  IDiag  1:
 RMSU=  5.13D-05    CP:  9.34D-01  1.03D+00
 E= -620.318031746262     Delta-E=       -0.000000064724 Rises=F Damp=F
 DIIS: error= 8.25D-07 at cycle   3 NSaved=   3.
 NSaved= 3 IEnMin= 3 EnMin= -620.318031746262     IErMin= 3 ErrMin= 8.25D-07
 ErrMax= 8.25D-07  0.00D+00 EMaxC= 1.00D-01 BMatC= 3.71D-10 BMatP= 3.46D-08
 IDIUse=1 WtCom= 1.00D+00 WtEn= 0.00D+00
 Coeff-Com: -0.694D-04-0.147D-01 0.101D+01
 Coeff:     -0.694D-04-0.147D-01 0.101D+01
 Gap=     0.322 Goal=   None    Shift=    0.000
 RMSDP=3.39D-06 MaxDP=8.97D-05 DE=-6.47D-08 OVMax= 8.03D-06

 Cycle  18  Pass 1  IDiag  1:
 RMSU=  1.74D-06    CP:  9.34D-01  1.03D+00  1.05D+00
 E= -620.318031746527     Delta-E=       -0.000000000264 Rises=F Damp=F
 DIIS: error= 9.58D-07 at cycle   4 NSaved=   4.
 NSaved= 4 IEnMin= 4 EnMin= -620.318031746527     IErMin= 3 ErrMin= 8.25D-07
 ErrMax= 9.58D-07  0.00D+00 EMaxC= 1.00D-01 BMatC= 2.82D-10 BMatP= 3.71D-10
 IDIUse=1 WtCom= 1.00D+00 WtEn= 0.00D+00
 Coeff-Com:  0.671D-03-0.320D-01 0.485D+00 0.547D+00
 Coeff:      0.671D-03-0.320D-01 0.485D+00 0.547D+00
 Gap=     0.322 Goal=   None    Shift=    0.000
 RMSDP=2.31D-07 MaxDP=6.75D-06 DE=-2.64D-10 OVMax= 4.73D-06

 Cycle  19  Pass 1  IDiag  1:
 RMSU=  8.90D-08    CP:  9.34D-01  1.03D+00  1.05D+00  1.07D+00
 E= -620.318031746802     Delta-E=       -0.000000000275 Rises=F Damp=F
 DIIS: error= 2.91D-07 at cycle   5 NSaved=   5.
 NSaved= 5 IEnMin= 5 EnMin= -620.318031746802     IErMin= 5 ErrMin= 2.91D-07
 ErrMax= 2.91D-07  0.00D+00 EMaxC= 1.00D-01 BMatC= 1.18D-11 BMatP= 2.82D-10
 IDIUse=1 WtCom= 1.00D+00 WtEn= 0.00D+00
 Coeff-Com:  0.288D-03-0.127D-01 0.147D+00 0.228D+00 0.637D+00
 Coeff:      0.288D-03-0.127D-01 0.147D+00 0.228D+00 0.637D+00
 Gap=     0.322 Goal=   None    Shift=    0.000
 RMSDP=6.46D-08 MaxDP=1.91D-06 DE=-2.75D-10 OVMax= 1.39D-06

 Cycle  20  Pass 1  IDiag  1:
 RMSU=  2.25D-08    CP:  9.34D-01  1.03D+00  1.05D+00  1.10D+00  1.06D+00
 E= -620.318031746805     Delta-E=       -0.000000000003 Rises=F Damp=F
 DIIS: error= 6.60D-08 at cycle   6 NSaved=   6.
 NSaved= 6 IEnMin= 6 EnMin= -620.318031746805     IErMin= 6 ErrMin= 6.60D-08
 ErrMax= 6.60D-08  0.00D+00 EMaxC= 1.00D-01 BMatC= 1.28D-12 BMatP= 1.18D-11
 IDIUse=1 WtCom= 1.00D+00 WtEn= 0.00D+00
 Coeff-Com:  0.269D-05 0.256D-03-0.203D-01 0.107D-02 0.244D+00 0.775D+00
 Coeff:      0.269D-05 0.256D-03-0.203D-01 0.107D-02 0.244D+00 0.775D+00
 Gap=     0.322 Goal=   None    Shift=    0.000
 RMSDP=3.21D-08 MaxDP=1.10D-06 DE=-3.18D-12 OVMax= 4.06D-07

 Cycle  21  Pass 1  IDiag  1:
 RMSU=  1.07D-08    CP:  9.34D-01  1.03D+00  1.05D+00  1.11D+00  1.09D+00
                    CP:  1.29D+00
 E= -620.318031746822     Delta-E=       -0.000000000018 Rises=F Damp=F
 DIIS: error= 2.05D-08 at cycle   7 NSaved=   7.
 NSaved= 7 IEnMin= 7 EnMin= -620.318031746822     IErMin= 7 ErrMin= 2.05D-08
 ErrMax= 2.05D-08  0.00D+00 EMaxC= 1.00D-01 BMatC= 1.13D-13 BMatP= 1.28D-12
 IDIUse=1 WtCom= 1.00D+00 WtEn= 0.00D+00
 Coeff-Com: -0.204D-04 0.105D-02-0.191D-01-0.158D-01 0.517D-01 0.315D+00
 Coeff-Com:  0.667D+00
 Coeff:     -0.204D-04 0.105D-02-0.191D-01-0.158D-01 0.517D-01 0.315D+00
 Coeff:      0.667D+00
 Gap=     0.322 Goal=   None    Shift=    0.000
 RMSDP=4.19D-09 MaxDP=1.65D-07 DE=-1.75D-11 OVMax= 1.05D-07

 SCF Done:  E(RCAM-B3LYP) =  -620.318031747     A.U. after   21 cycles
            NFock= 21  Conv=0.42D-08     -V/T= 2.0033
 KE= 6.182650081328D+02 PE=-3.365987626738D+03 EE= 1.163804671276D+03
 Leave Link  502 at Mon Mar  4 13:57:31 2024, MaxMem= 14763950080 cpu:            2068.1 elap:              65.2
 (Enter /apps/gaussian/g16-c01-avx2/g16/l601.exe)
 Copying SCF densities to generalized density rwf, IOpCl= 0 IROHF=0.

 **********************************************************************

            Population analysis using the SCF Density.

 **********************************************************************

 Orbital symmetries:
       Occupied  (A) (A) (A) (A) (A) (A) (A) (A) (A) (A) (A) (A)
                 (A) (A) (A) (A) (A) (A) (A) (A) (A) (A) (A) (A)
                 (A) (A) (A) (A) (A) (A) (A) (A) (A) (A) (A) (A)
                 (A) (A) (A) (A) (A) (A) (A) (A) (A) (A) (A) (A)
                 (A) (A) (A) (A) (A) (A) (A) (A) (A)
       Virtual   (A) (A) (A) (A) (A) (A) (A) (A) (A) (A) (A) (A)
                 (A) (A) (A) (A) (A) (A) (A) (A) (A) (A) (A) (A)
                 (A) (A) (A) (A) (A) (A) (A) (A) (A) (A) (A) (A)
                 (A) (A) (A) (A) (A) (A) (A) (A) (A) (A) (A) (A)
                 (A) (A) (A) (A) (A) (A) (A) (A) (A) (A) (A) (A)
                 (A) (A) (A) (A) (A) (A) (A) (A) (A) (A) (A) (A)
                 (A) (A) (A) (A) (A) (A) (A) (A) (A) (A) (A) (A)
                 (A) (A) (A) (A) (A) (A) (A) (A) (A) (A) (A) (A)
                 (A) (A) (A) (A) (A) (A) (A) (A) (A) (A) (A) (A)
                 (A) (A) (A) (A) (A) (A) (A) (A) (A) (A) (A) (A)
                 (A) (A) (A) (A) (A) (A) (A) (A) (A) (A) (A) (A)
                 (A) (A) (A) (A) (A) (A) (A) (A) (A) (A) (A) (A)
                 (A) (A) (A) (A) (A) (A) (A) (A) (A) (A) (A) (A)
                 (A) (A) (A) (A) (A) (A) (A) (A) (A) (A) (A) (A)
                 (A) (A) (A) (A) (A) (A) (A) (A) (A) (A) (A) (A)
                 (A) (A) (A) (A) (A) (A) (A) (A) (A) (A) (A) (A)
                 (A) (A) (A) (A) (A) (A) (A) (A) (A) (A) (A) (A)
                 (A) (A) (A) (A) (A) (A) (A) (A) (A) (A) (A) (A)
                 (A) (A) (A) (A) (A) (A) (A) (A) (A) (A) (A) (A)
                 (A) (A) (A) (A) (A) (A) (A) (A) (A) (A) (A) (A)
                 (A) (A) (A) (A) (A) (A) (A) (A) (A) (A) (A) (A)
                 (A) (A) (A) (A) (A) (A) (A) (A) (A) (A) (A) (A)
                 (A) (A) (A) (A) (A) (A) (A) (A) (A) (A) (A) (A)
                 (A) (A) (A) (A) (A) (A) (A) (A) (A) (A) (A) (A)
                 (A) (A) (A) (A) (A) (A) (A) (A) (A) (A) (A) (A)
                 (A) (A) (A) (A) (A) (A) (A) (A) (A) (A) (A) (A)
                 (A) (A) (A) (A) (A) (A) (A) (A) (A) (A) (A) (A)
                 (A) (A) (A) (A) (A) (A) (A) (A) (A) (A) (A) (A)
                 (A) (A) (A) (A) (A) (A) (A) (A) (A) (A) (A) (A)
                 (A) (A) (A) (A) (A) (A) (A)
 The electronic state is 1-A.
 Alpha  occ. eigenvalues --  -10.25530 -10.25475 -10.24919 -10.24869 -10.24811
 Alpha  occ. eigenvalues --  -10.24760 -10.24571 -10.24538 -10.24521 -10.24485
 Alpha  occ. eigenvalues --  -10.24465 -10.24396 -10.22811 -10.22740 -10.21896
 Alpha  occ. eigenvalues --  -10.21829  -0.94952  -0.94147  -0.91572  -0.87235
 Alpha  occ. eigenvalues --   -0.82717  -0.82676  -0.82346  -0.79352  -0.71679
 Alpha  occ. eigenvalues --   -0.69105  -0.68389  -0.67480  -0.65585  -0.65347
 Alpha  occ. eigenvalues --   -0.59695  -0.58806  -0.55509  -0.54983  -0.53966
 Alpha  occ. eigenvalues --   -0.52951  -0.51401  -0.51319  -0.49730  -0.49105
 Alpha  occ. eigenvalues --   -0.48791  -0.47848  -0.45837  -0.44429  -0.44158
 Alpha  occ. eigenvalues --   -0.42924  -0.42349  -0.41293  -0.41132  -0.40502
 Alpha  occ. eigenvalues --   -0.39524  -0.37664  -0.36199  -0.30848  -0.30786
 Alpha  occ. eigenvalues --   -0.29843  -0.29448
 Alpha virt. eigenvalues --    0.02790   0.03053   0.03781   0.03909   0.08246
 Alpha virt. eigenvalues --    0.08370   0.09212   0.10015   0.10474   0.11414
 Alpha virt. eigenvalues --    0.12341   0.12666   0.13298   0.14370   0.14402
 Alpha virt. eigenvalues --    0.15048   0.15584   0.16017   0.16712   0.17662
 Alpha virt. eigenvalues --    0.18709   0.19385   0.19980   0.20301   0.20648
 Alpha virt. eigenvalues --    0.21907   0.22561   0.22936   0.23944   0.24362
 Alpha virt. eigenvalues --    0.25769   0.26123   0.26295   0.26894   0.27281
 Alpha virt. eigenvalues --    0.27691   0.27988   0.28554   0.28809   0.29533
 Alpha virt. eigenvalues --    0.30023   0.30508   0.31820   0.32035   0.32515
 Alpha virt. eigenvalues --    0.33126   0.33389   0.33833   0.34685   0.35160
 Alpha virt. eigenvalues --    0.36069   0.36523   0.37837   0.38681   0.38889
 Alpha virt. eigenvalues --    0.39708   0.40255   0.40759   0.41045   0.41387
 Alpha virt. eigenvalues --    0.42086   0.42824   0.43406   0.43726   0.44590
 Alpha virt. eigenvalues --    0.45174   0.45414   0.45838   0.46187   0.46854
 Alpha virt. eigenvalues --    0.47114   0.47520   0.47727   0.48863   0.49398
 Alpha virt. eigenvalues --    0.49829   0.50563   0.51169   0.51274   0.51811
 Alpha virt. eigenvalues --    0.51897   0.53058   0.53469   0.53682   0.54601
 Alpha virt. eigenvalues --    0.54701   0.55603   0.55974   0.56098   0.56658
 Alpha virt. eigenvalues --    0.57214   0.58064   0.58575   0.59254   0.60055
 Alpha virt. eigenvalues --    0.61346   0.61920   0.63362   0.63389   0.64453
 Alpha virt. eigenvalues --    0.65298   0.65876   0.66345   0.67530   0.70815
 Alpha virt. eigenvalues --    0.72306   0.72815   0.73382   0.74527   0.74954
 Alpha virt. eigenvalues --    0.75024   0.76089   0.76871   0.77357   0.77962
 Alpha virt. eigenvalues --    0.78735   0.80635   0.83148   0.84048   0.86474
 Alpha virt. eigenvalues --    0.87576   0.95949   0.96433   1.19185   1.21417
 Alpha virt. eigenvalues --    1.24542   1.27597   1.27796   1.29132   1.30055
 Alpha virt. eigenvalues --    1.30671   1.31298   1.32001   1.32157   1.32516
 Alpha virt. eigenvalues --    1.34081   1.34501   1.34781   1.35814   1.36230
 Alpha virt. eigenvalues --    1.36566   1.36771   1.36952   1.37105   1.37392
 Alpha virt. eigenvalues --    1.37748   1.38509   1.40108   1.41947   1.43815
 Alpha virt. eigenvalues --    1.44329   1.45445   1.46017   1.47034   1.47920
 Alpha virt. eigenvalues --    1.48164   1.49039   1.50209   1.50591   1.51425
 Alpha virt. eigenvalues --    1.51598   1.51743   1.51788   1.51994   1.52294
 Alpha virt. eigenvalues --    1.52649   1.53533   1.54298   1.54676   1.55356
 Alpha virt. eigenvalues --    1.56399   1.56550   1.57740   1.57809   1.57978
 Alpha virt. eigenvalues --    1.58372   1.59386   1.59733   1.60431   1.60785
 Alpha virt. eigenvalues --    1.61108   1.61699   1.61815   1.62856   1.63186
 Alpha virt. eigenvalues --    1.63648   1.66013   1.66661   1.67388   1.68975
 Alpha virt. eigenvalues --    1.70243   1.71077   1.71918   1.73264   1.73547
 Alpha virt. eigenvalues --    1.76544   1.77416   1.81625   1.82174   1.84158
 Alpha virt. eigenvalues --    1.84629   1.84831   1.85016   1.85850   1.86469
 Alpha virt. eigenvalues --    1.87027   1.87819   1.88308   1.89453   1.90215
 Alpha virt. eigenvalues --    1.90977   1.91203   1.93570   1.94432   1.94534
 Alpha virt. eigenvalues --    1.94676   1.95189   1.95261   1.96312   1.97950
 Alpha virt. eigenvalues --    1.98438   1.98890   1.99805   1.99952   2.00466
 Alpha virt. eigenvalues --    2.01122   2.03889   2.04909   2.06196   2.06953
 Alpha virt. eigenvalues --    2.07858   2.08617   2.10070   2.10272   2.11058
 Alpha virt. eigenvalues --    2.13099   2.13935   2.15657   2.20350   2.21038
 Alpha virt. eigenvalues --    2.23943   2.25962   2.26798   2.28080   2.30268
 Alpha virt. eigenvalues --    2.32926   2.34151   2.34987   2.37630   2.37923
 Alpha virt. eigenvalues --    2.38604   2.39090   2.40114   2.40374   2.41552
 Alpha virt. eigenvalues --    2.41671   2.43173   2.44754   2.45245   2.45975
 Alpha virt. eigenvalues --    2.47403   2.47802   2.48712   2.51597   2.52151
 Alpha virt. eigenvalues --    2.53929   2.54299   2.55959   2.56661   2.57055
 Alpha virt. eigenvalues --    2.57468   2.59681   2.60635   2.60822   2.61063
 Alpha virt. eigenvalues --    2.65080   2.67776   2.68304   2.69295   2.69647
 Alpha virt. eigenvalues --    2.71789   2.72487   2.72795   2.74385   2.75310
 Alpha virt. eigenvalues --    2.76066   2.76796   2.77788   2.80482   2.81339
 Alpha virt. eigenvalues --    2.81663   2.82706   2.83466   2.85630   2.86446
 Alpha virt. eigenvalues --    2.87574   2.88118   2.88911   2.91952   2.93335
 Alpha virt. eigenvalues --    2.96050   2.98841   3.03936   3.04356   3.07285
 Alpha virt. eigenvalues --    3.10544   3.11741   3.12578   3.13914   3.14296
 Alpha virt. eigenvalues --    3.16058   3.17566   3.20723   3.21058   3.21938
 Alpha virt. eigenvalues --    3.22324   3.24117   3.26234   3.26963   3.27976
 Alpha virt. eigenvalues --    3.28669   3.30686   3.39559   3.40085   3.40755
 Alpha virt. eigenvalues --    3.42428   3.43560   3.47636   3.47950   3.53212
 Alpha virt. eigenvalues --    3.53921   3.57958   3.59440   3.59838   3.61833
 Alpha virt. eigenvalues --    3.63170   3.75671   3.87925   3.88555  21.37808
 Alpha virt. eigenvalues --   21.40362  21.88595  21.92210  21.93338  21.93900
 Alpha virt. eigenvalues --   22.09468  22.14130  22.16180  22.16781  22.20437
 Alpha virt. eigenvalues --   22.27539  22.29176  22.29727  22.36338  22.47134
          Condensed to atoms (all electrons):
               1          2          3          4          5          6
     1  C    4.930346   0.515788  -0.051485  -0.043801  -0.058328   0.510617
     2  C    0.515788   4.944603   0.469116  -0.055831  -0.078894  -0.035826
     3  C   -0.051485   0.469116   5.025284   0.498771  -0.041284  -0.082833
     4  C   -0.043801  -0.055831   0.498771   5.255660   0.477094  -0.056302
     5  C   -0.058328  -0.078894  -0.041284   0.477094   5.069899   0.464103
     6  C    0.510617  -0.035826  -0.082833  -0.056302   0.464103   4.950517
     7  H    0.404471  -0.038723   0.011040  -0.001645   0.011650  -0.041041
     8  H   -0.039836   0.401517  -0.037137   0.011637   0.000526   0.008187
     9  H    0.008365  -0.033290   0.400677  -0.040040   0.011080  -0.001344
    10  H    0.007687  -0.001396   0.010556  -0.032790   0.397859  -0.034237
    11  H   -0.037763   0.007576   0.000775   0.010113  -0.035178   0.399506
    12  C   -0.002040   0.020267  -0.077225   0.152461  -0.066304   0.018224
    13  H    0.000402  -0.000848   0.002850  -0.036266   0.000008  -0.000932
    14  H   -0.000156   0.001188  -0.006247  -0.070343   0.007743  -0.000355
    15  C    0.001550  -0.004052   0.019576  -0.083068  -0.001733  -0.005107
    16  H   -0.000047   0.000165  -0.002464   0.005262   0.002881   0.000177
    17  H    0.000469  -0.000901   0.009642  -0.017723   0.000078  -0.002044
    18  C   -0.000118   0.000254  -0.002187   0.024691   0.001236   0.000258
    19  H    0.000017  -0.000153   0.001943  -0.001344  -0.000403  -0.000027
    20  H    0.000005   0.000047  -0.000618  -0.002413   0.000448  -0.000040
    21  C   -0.000006   0.000006   0.000462   0.006419  -0.000157   0.000003
    22  H   -0.000000   0.000003  -0.000084   0.000357   0.000056  -0.000000
    23  H    0.000001  -0.000005   0.000085  -0.000952   0.000000   0.000002
    24  C    0.000002  -0.000003   0.000032  -0.001601  -0.000108   0.000001
    25  C    0.000000  -0.000000   0.000003  -0.000066  -0.000001  -0.000000
    26  C   -0.000001  -0.000001  -0.000007   0.000501  -0.000051   0.000003
    27  C   -0.000000   0.000000  -0.000000   0.000000   0.000000  -0.000000
    28  H    0.000000   0.000000   0.000000  -0.000001  -0.000000  -0.000000
    29  C    0.000000  -0.000000   0.000001  -0.000010  -0.000000  -0.000000
    30  H    0.000000  -0.000002   0.000000   0.000113   0.000049  -0.000004
    31  C   -0.000000   0.000000  -0.000000   0.000001   0.000000   0.000000
    32  H   -0.000000   0.000000  -0.000000  -0.000000  -0.000000  -0.000000
    33  H    0.000000   0.000000   0.000000  -0.000001  -0.000000  -0.000000
    34  H    0.000000   0.000000  -0.000000  -0.000000   0.000000   0.000000
               7          8          9         10         11         12
     1  C    0.404471  -0.039836   0.008365   0.007687  -0.037763  -0.002040
     2  C   -0.038723   0.401517  -0.033290  -0.001396   0.007576   0.020267
     3  C    0.011040  -0.037137   0.400677   0.010556   0.000775  -0.077225
     4  C   -0.001645   0.011637  -0.040040  -0.032790   0.010113   0.152461
     5  C    0.011650   0.000526   0.011080   0.397859  -0.035178  -0.066304
     6  C   -0.041041   0.008187  -0.001344  -0.034237   0.399506   0.018224
     7  H    0.534115  -0.003875  -0.000257  -0.000223  -0.003905  -0.000055
     8  H   -0.003875   0.537441  -0.003304   0.000028  -0.000278  -0.000704
     9  H   -0.000257  -0.003304   0.539770  -0.000200   0.000036  -0.011368
    10  H   -0.000223   0.000028  -0.000200   0.519550  -0.002977  -0.002633
    11  H   -0.003905  -0.000278   0.000036  -0.002977   0.535279  -0.000607
    12  C   -0.000055  -0.000704  -0.011368  -0.002633  -0.000607   5.480303
    13  H    0.000000   0.000013   0.000539   0.000773  -0.000007   0.445060
    14  H    0.000002   0.000009   0.001225  -0.000157   0.000010   0.483327
    15  C    0.000013   0.000013   0.000105   0.000103   0.000041   0.069883
    16  H   -0.000000  -0.000001  -0.000094  -0.001019  -0.000010  -0.048959
    17  H   -0.000000   0.000009   0.000522   0.001466   0.000063  -0.079406
    18  C   -0.000000  -0.000002  -0.000457   0.000531   0.000006  -0.049944
    19  H   -0.000000  -0.000005   0.000547  -0.000011  -0.000000  -0.019766
    20  H   -0.000000   0.000000  -0.000012  -0.000010  -0.000000   0.013472
    21  C    0.000000   0.000000   0.000033   0.000042  -0.000000  -0.019000
    22  H   -0.000000   0.000000  -0.000009  -0.000001  -0.000000  -0.001960
    23  H    0.000000  -0.000000   0.000007   0.000034   0.000000   0.000393
    24  C   -0.000000  -0.000000  -0.000000  -0.000010  -0.000000   0.007361
    25  C    0.000000   0.000000   0.000000  -0.000000  -0.000000   0.000451
    26  C    0.000000  -0.000000  -0.000001  -0.000001  -0.000000  -0.001534
    27  C   -0.000000  -0.000000  -0.000000  -0.000000  -0.000000  -0.000006
    28  H   -0.000000   0.000000   0.000000   0.000000   0.000000   0.000014
    29  C   -0.000000   0.000000   0.000000   0.000000   0.000000   0.000012
    30  H   -0.000000   0.000000   0.000001   0.000013   0.000000   0.000327
    31  C    0.000000   0.000000  -0.000000   0.000000   0.000000  -0.000006
    32  H   -0.000000   0.000000   0.000000   0.000000   0.000000   0.000000
    33  H   -0.000000   0.000000   0.000000  -0.000000   0.000000   0.000002
    34  H    0.000000  -0.000000  -0.000000  -0.000000  -0.000000  -0.000000
              13         14         15         16         17         18
     1  C    0.000402  -0.000156   0.001550  -0.000047   0.000469  -0.000118
     2  C   -0.000848   0.001188  -0.004052   0.000165  -0.000901   0.000254
     3  C    0.002850  -0.006247   0.019576  -0.002464   0.009642  -0.002187
     4  C   -0.036266  -0.070343  -0.083068   0.005262  -0.017723   0.024691
     5  C    0.000008   0.007743  -0.001733   0.002881   0.000078   0.001236
     6  C   -0.000932  -0.000355  -0.005107   0.000177  -0.002044   0.000258
     7  H    0.000000   0.000002   0.000013  -0.000000  -0.000000  -0.000000
     8  H    0.000013   0.000009   0.000013  -0.000001   0.000009  -0.000002
     9  H    0.000539   0.001225   0.000105  -0.000094   0.000522  -0.000457
    10  H    0.000773  -0.000157   0.000103  -0.001019   0.001466   0.000531
    11  H   -0.000007   0.000010   0.000041  -0.000010   0.000063   0.000006
    12  C    0.445060   0.483327   0.069883  -0.048959  -0.079406  -0.049944
    13  H    0.524366  -0.021669  -0.081678  -0.019249   0.007880   0.008715
    14  H   -0.021669   0.556845  -0.076882   0.008783   0.005471  -0.021507
    15  C   -0.081678  -0.076882   5.498427   0.432440   0.454805   0.133508
    16  H   -0.019249   0.008783   0.432440   0.577139  -0.029180  -0.048782
    17  H    0.007880   0.005471   0.454805  -0.029180   0.518684  -0.042849
    18  C    0.008715  -0.021507   0.133508  -0.048782  -0.042849   5.575863
    19  H    0.002486   0.002030  -0.042753   0.003134   0.006013   0.422937
    20  H   -0.000819   0.002765  -0.059017   0.005388  -0.007917   0.466031
    21  C    0.001054  -0.002866  -0.025554  -0.007133   0.009608   0.055793
    22  H   -0.000582   0.000564   0.012639   0.003591  -0.001031  -0.058202
    23  H    0.000309   0.000795  -0.021387  -0.000766   0.002966  -0.096824
    24  C    0.000160  -0.000079   0.005301  -0.005563   0.000691  -0.071651
    25  C    0.000011   0.000007  -0.003418  -0.000692   0.000260   0.011425
    26  C   -0.000036  -0.000202   0.000100   0.002502  -0.000249   0.013232
    27  C   -0.000000   0.000000   0.000551   0.000019  -0.000038  -0.004152
    28  H   -0.000000  -0.000001  -0.000247  -0.000023   0.000003   0.000590
    29  C    0.000001  -0.000003   0.001224  -0.000263  -0.000002  -0.006415
    30  H   -0.000015  -0.000021  -0.008897  -0.000533   0.001555   0.013816
    31  C    0.000000   0.000000  -0.000257   0.000011   0.000009   0.001453
    32  H   -0.000000   0.000000  -0.000001  -0.000000   0.000000   0.000027
    33  H    0.000000   0.000000   0.000015  -0.000004   0.000001   0.000017
    34  H   -0.000000   0.000000   0.000002   0.000000  -0.000000  -0.000002
              19         20         21         22         23         24
     1  C    0.000017   0.000005  -0.000006  -0.000000   0.000001   0.000002
     2  C   -0.000153   0.000047   0.000006   0.000003  -0.000005  -0.000003
     3  C    0.001943  -0.000618   0.000462  -0.000084   0.000085   0.000032
     4  C   -0.001344  -0.002413   0.006419   0.000357  -0.000952  -0.001601
     5  C   -0.000403   0.000448  -0.000157   0.000056   0.000000  -0.000108
     6  C   -0.000027  -0.000040   0.000003  -0.000000   0.000002   0.000001
     7  H   -0.000000  -0.000000   0.000000  -0.000000   0.000000  -0.000000
     8  H   -0.000005   0.000000   0.000000   0.000000  -0.000000  -0.000000
     9  H    0.000547  -0.000012   0.000033  -0.000009   0.000007  -0.000000
    10  H   -0.000011  -0.000010   0.000042  -0.000001   0.000034  -0.000010
    11  H   -0.000000  -0.000000  -0.000000  -0.000000   0.000000  -0.000000
    12  C   -0.019766   0.013472  -0.019000  -0.001960   0.000393   0.007361
    13  H    0.002486  -0.000819   0.001054  -0.000582   0.000309   0.000160
    14  H    0.002030   0.002765  -0.002866   0.000564   0.000795  -0.000079
    15  C   -0.042753  -0.059017  -0.025554   0.012639  -0.021387   0.005301
    16  H    0.003134   0.005388  -0.007133   0.003591  -0.000766  -0.005563
    17  H    0.006013  -0.007917   0.009608  -0.001031   0.002966   0.000691
    18  C    0.422937   0.466031   0.055793  -0.058202  -0.096824  -0.071651
    19  H    0.564034  -0.016051  -0.051372  -0.022728   0.009319   0.013493
[...]

 Energy =   -843.7688 cm^-1: |0> -> |29^1>
   -> Intensity = 0.6773     (DipStr = 0.6488E-03)

 Energy =   -842.2659 cm^-1: |0> -> |28^1>
   -> Intensity = 0.5249     (DipStr = 0.5028E-03)

 Energy =      0.0000 cm^-1: |0> -> |0>
   -> Intensity =  6.777     (DipStr = 0.5738E-02)

     ==================================================
                       Final Spectrum
     ==================================================

 Band broadening simulated by mean of Gaussian functions with
 Half-Widths at Half-Maximum of  400.00 cm^(-1)
 
 Legend:
 -------
 1st col.: Energy (in cm^-1)
 2nd col.: Intensity at T=0K
 Intensity: Emitted intensity (in microJ.mol^-1)
 -----------------------------
    20028.5076    0.843776D-03
    20048.5076    0.885867D-03
    20068.5076    0.929988D-03
    20088.5076    0.976208D-03
    20108.5076    0.102457D-02
    20128.5076    0.107515D-02
    20148.5076    0.112802D-02
    20168.5076    0.118325D-02
    20188.5076    0.124084D-02
    20208.5076    0.130089D-02
    20228.5076    0.136346D-02
    20248.5076    0.142863D-02
    20268.5076    0.149646D-02
    20288.5076    0.156698D-02
    20308.5076    0.164025D-02
    20328.5076    0.171636D-02
    20348.5076    0.179538D-02
    20368.5076    0.187736D-02
    20388.5076    0.196239D-02
    20408.5076    0.205054D-02
    20428.5076    0.214191D-02
    20448.5076    0.223663D-02
    20468.5076    0.233479D-02
    20488.5076    0.243655D-02
    20508.5076    0.254198D-02
    20528.5076    0.265125D-02
    20548.5076    0.276451D-02
    20568.5076    0.288199D-02
    20588.5076    0.300384D-02
    20608.5076    0.313023D-02
    20628.5076    0.326142D-02
    20648.5076    0.339767D-02
    20668.5076    0.353923D-02
    20688.5076    0.368640D-02
    20708.5076    0.383946D-02
    20728.5076    0.399872D-02
    20748.5076    0.416453D-02
    20768.5076    0.433729D-02
    20788.5076    0.451731D-02
    20808.5076    0.470504D-02
    20828.5076    0.490077D-02
    20848.5076    0.510495D-02
    20868.5076    0.531805D-02
    20888.5076    0.554048D-02
    20908.5076    0.577274D-02
    20928.5076    0.601520D-02
    20948.5076    0.626834D-02
    20968.5076    0.653258D-02
    20988.5076    0.680846D-02
    21008.5076    0.709632D-02
    21028.5076    0.739652D-02
    21048.5076    0.770940D-02
    21068.5076    0.803548D-02
    21088.5076    0.837516D-02
    21108.5076    0.872864D-02
    21128.5076    0.909644D-02
    21148.5076    0.947861D-02
    21168.5076    0.987565D-02
    21188.5076    0.102876D-01
    21208.5076    0.107148D-01
    21228.5076    0.111571D-01
    21248.5076    0.116148D-01
    21268.5076    0.120879D-01
    21288.5076    0.125766D-01
    21308.5076    0.130810D-01
    21328.5076    0.136009D-01
    21348.5076    0.141364D-01
    21368.5076    0.146873D-01
    21388.5076    0.152538D-01
    21408.5076    0.158357D-01
    21428.5076    0.164330D-01
    21448.5076    0.170452D-01
    21468.5076    0.176726D-01
    21488.5076    0.183153D-01
    21508.5076    0.189731D-01
    21528.5076    0.196465D-01
    21548.5076    0.203350D-01
    21568.5076    0.210390D-01
    21588.5076    0.217587D-01
    21608.5076    0.224948D-01
    21628.5076    0.232471D-01
    21648.5076    0.240162D-01
    21668.5076    0.248027D-01
    21688.5076    0.256074D-01
    21708.5076    0.264311D-01
    21728.5076    0.272746D-01
    21748.5076    0.281393D-01
    21768.5076    0.290259D-01
    21788.5076    0.299360D-01
    21808.5076    0.308710D-01
    21828.5076    0.318324D-01
    21848.5076    0.328218D-01
    21868.5076    0.338408D-01
    21888.5076    0.348911D-01
    21908.5076    0.359748D-01
    21928.5076    0.370940D-01
    21948.5076    0.382509D-01
    21968.5076    0.394470D-01
    21988.5076    0.406850D-01
    22008.5076    0.419669D-01
    22028.5076    0.432955D-01
    22048.5076    0.446722D-01
    22068.5076    0.460982D-01
    22088.5076    0.475761D-01
    22108.5076    0.491074D-01
    22128.5076    0.506943D-01
    22148.5076    0.523387D-01
    22168.5076    0.540412D-01
    22188.5076    0.558032D-01
    22208.5076    0.576270D-01
    22228.5076    0.595128D-01
    22248.5076    0.614608D-01
    22268.5076    0.634718D-01
    22288.5076    0.655439D-01
    22308.5076    0.676792D-01
    22328.5076    0.698763D-01
    22348.5076    0.721357D-01
    22368.5076    0.744565D-01
    22388.5076    0.768369D-01
    22408.5076    0.792768D-01
    22428.5076    0.817750D-01
    22448.5076    0.843309D-01
    22468.5076    0.869402D-01
    22488.5076    0.896021D-01
    22508.5076    0.923151D-01
    22528.5076    0.950784D-01
    22548.5076    0.978901D-01
    22568.5076    0.100749D+00
    22588.5076    0.103654D+00
    22608.5076    0.106604D+00
    22628.5076    0.109599D+00
    22648.5076    0.112638D+00
    22668.5076    0.115721D+00
    22688.5076    0.118847D+00
    22708.5076    0.122018D+00
    22728.5076    0.125234D+00
    22748.5076    0.128499D+00
    22768.5076    0.131814D+00
    22788.5076    0.135184D+00
    22808.5076    0.138610D+00
    22828.5076    0.142097D+00
    22848.5076    0.145651D+00
    22868.5076    0.149277D+00
    22888.5076    0.152979D+00
    22908.5076    0.156765D+00
    22928.5076    0.160640D+00
    22948.5076    0.164612D+00
    22968.5076    0.168691D+00
    22988.5076    0.172883D+00
    23008.5076    0.177196D+00
    23028.5076    0.181638D+00
    23048.5076    0.186222D+00
    23068.5076    0.190951D+00
    23088.5076    0.195840D+00
    23108.5076    0.200887D+00
    23128.5076    0.206104D+00
    23148.5076    0.211498D+00
    23168.5076    0.217075D+00
    23188.5076    0.222844D+00
    23208.5076    0.228805D+00
    23228.5076    0.234966D+00
    23248.5076    0.241327D+00
    23268.5076    0.247900D+00
    23288.5076    0.254673D+00
    23308.5076    0.261659D+00
    23328.5076    0.268836D+00
    23348.5076    0.276214D+00
    23368.5076    0.283785D+00
    23388.5076    0.291547D+00
    23408.5076    0.299494D+00
    23428.5076    0.307614D+00
    23448.5076    0.315906D+00
    23468.5076    0.324361D+00
    23488.5076    0.332969D+00
    23508.5076    0.341708D+00
    23528.5076    0.350566D+00
    23548.5076    0.359539D+00
    23568.5076    0.368610D+00
    23588.5076    0.377771D+00
    23608.5076    0.387008D+00
    23628.5076    0.396316D+00
    23648.5076    0.405679D+00
    23668.5076    0.415099D+00
    23688.5076    0.424558D+00
    23708.5076    0.434061D+00
    23728.5076    0.443584D+00
    23748.5076    0.453139D+00
    23768.5076    0.462721D+00
    23788.5076    0.472338D+00
    23808.5076    0.481995D+00
    23828.5076    0.491698D+00
    23848.5076    0.501455D+00
    23868.5076    0.511286D+00
    23888.5076    0.521208D+00
    23908.5076    0.531233D+00
    23928.5076    0.541389D+00
    23948.5076    0.551694D+00
    23968.5076    0.562180D+00
    23988.5076    0.572874D+00
    24008.5076    0.583806D+00
    24028.5076    0.595021D+00
    24048.5076    0.606535D+00
    24068.5076    0.618390D+00
    24088.5076    0.630627D+00
    24108.5076    0.643278D+00
    24128.5076    0.656389D+00
    24148.5076    0.669978D+00
    24168.5076    0.684071D+00
    24188.5076    0.698709D+00
    24208.5076    0.713916D+00
    24228.5076    0.729724D+00
    24248.5076    0.746143D+00
    24268.5076    0.763192D+00
    24288.5076    0.780888D+00
    24308.5076    0.799263D+00
    24328.5076    0.818311D+00
    24348.5076    0.837983D+00
    24368.5076    0.858279D+00
    24388.5076    0.879196D+00
    24408.5076    0.900710D+00
    24428.5076    0.922793D+00
    24448.5076    0.945407D+00
    24468.5076    0.968512D+00
    24488.5076    0.992082D+00
    24508.5076    0.101608D+01
    24528.5076    0.104042D+01
    24548.5076    0.106507D+01
    24568.5076    0.108988D+01
    24588.5076    0.111486D+01
    24608.5076    0.113992D+01
    24628.5076    0.116501D+01
    24648.5076    0.119004D+01
    24668.5076    0.121496D+01
    24688.5076    0.123971D+01
    24708.5076    0.126427D+01
    24728.5076    0.128854D+01
    24748.5076    0.131254D+01
    24768.5076    0.133613D+01
    24788.5076    0.135932D+01
    24808.5076    0.138211D+01
    24828.5076    0.140447D+01
    24848.5076    0.142642D+01
    24868.5076    0.144799D+01
    24888.5076    0.146917D+01
    24908.5076    0.149002D+01
    24928.5076    0.151061D+01
    24948.5076    0.153097D+01
    24968.5076    0.155120D+01
    24988.5076    0.157138D+01
    25008.5076    0.159162D+01
    25028.5076    0.161203D+01
    25048.5076    0.163273D+01
    25068.5076    0.165387D+01
    25088.5076    0.167557D+01
    25108.5076    0.169798D+01
    25128.5076    0.172125D+01
    25148.5076    0.174553D+01
    25168.5076    0.177097D+01
    25188.5076    0.179774D+01
    25208.5076    0.182594D+01
    25228.5076    0.185571D+01
    25248.5076    0.188718D+01
    25268.5076    0.192048D+01
    25288.5076    0.195568D+01
    25308.5076    0.199286D+01
    25328.5076    0.203210D+01
    25348.5076    0.207344D+01
    25368.5076    0.211705D+01
    25388.5076    0.216263D+01
    25408.5076    0.221026D+01
    25428.5076    0.225990D+01
    25448.5076    0.231145D+01
    25468.5076    0.236480D+01
    25488.5076    0.241980D+01
    25508.5076    0.247629D+01
    25528.5076    0.253406D+01
    25548.5076    0.259308D+01
    25568.5076    0.265277D+01
    25588.5076    0.271341D+01
    25608.5076    0.277402D+01
    25628.5076    0.283462D+01
    25648.5076    0.289491D+01
    25668.5076    0.295457D+01
    25688.5076    0.301329D+01
    25708.5076    0.307076D+01
    25728.5076    0.312665D+01
    25748.5076    0.318069D+01
    25768.5076    0.323282D+01
    25788.5076    0.328238D+01
    25808.5076    0.332932D+01
    25828.5076    0.337345D+01
    25848.5076    0.341463D+01
    25868.5076    0.345268D+01
    25888.5076    0.348755D+01
    25908.5076    0.351921D+01
    25928.5076    0.354768D+01
    25948.5076    0.357302D+01
    25968.5076    0.359537D+01
    25988.5076    0.361490D+01
    26008.5076    0.363186D+01
    26028.5076    0.364652D+01
    26048.5076    0.365920D+01
    26068.5076    0.367032D+01
    26088.5076    0.368029D+01
    26108.5076    0.368960D+01
    26128.5076    0.369875D+01
    26148.5076    0.370832D+01
    26168.5076    0.371884D+01
    26188.5076    0.373091D+01
    26208.5076    0.374512D+01
    26228.5076    0.376206D+01
    26248.5076    0.378232D+01
    26268.5076    0.380647D+01
    26288.5076    0.383504D+01
    26308.5076    0.386854D+01
    26328.5076    0.390744D+01
    26348.5076    0.395214D+01
    26368.5076    0.400297D+01
    26388.5076    0.406021D+01
    26408.5076    0.412404D+01
    26428.5076    0.419457D+01
    26448.5076    0.427178D+01
    26468.5076    0.435560D+01
    26488.5076    0.444583D+01
    26508.5076    0.454218D+01
    26528.5076    0.464428D+01
    26548.5076    0.475160D+01
    26568.5076    0.486357D+01
    26588.5076    0.497947D+01
    26608.5076    0.509850D+01
    26628.5076    0.522119D+01
    26648.5076    0.534419D+01
    26668.5076    0.546760D+01
    26688.5076    0.559036D+01
    26708.5076    0.571138D+01
    26728.5076    0.582956D+01
    26748.5076    0.594378D+01
    26768.5076    0.605291D+01
    26788.5076    0.615588D+01
    26808.5076    0.625161D+01
    26828.5076    0.633911D+01
    26848.5076    0.641744D+01
    26868.5076    0.648578D+01
    26888.5076    0.654337D+01
    26908.5076    0.658958D+01
    26928.5076    0.662390D+01
    26948.5076    0.664596D+01
    26968.5076    0.665557D+01
    26988.5076    0.665264D+01
    27008.5076    0.663727D+01
    27028.5076    0.660969D+01
    27048.5076    0.657033D+01
    27068.5076    0.651976D+01
    27088.5076    0.645871D+01
    27108.5076    0.638805D+01
    27128.5076    0.630879D+01
    27148.5076    0.622209D+01
    27168.5076    0.612930D+01
    27188.5076    0.603175D+01
    27208.5076    0.593089D+01
    27228.5076    0.582826D+01
    27248.5076    0.572545D+01
    27268.5076    0.562407D+01
    27288.5076    0.552575D+01
    27308.5076    0.543209D+01
    27328.5076    0.534464D+01
    27348.5076    0.526498D+01
    27368.5076    0.519451D+01
    27388.5076    0.513464D+01
    27408.5076    0.508648D+01
    27428.5076    0.505113D+01
    27448.5076    0.502946D+01
    27468.5076    0.502219D+01
    27488.5076    0.502985D+01
    27508.5076    0.505272D+01
    27528.5076    0.509087D+01
    27548.5076    0.514423D+01
    27568.5076    0.521235D+01
    27588.5076    0.529475D+01
    27608.5076    0.539054D+01
    27628.5076    0.549864D+01
    27648.5076    0.561781D+01
    27668.5076    0.574659D+01
    27688.5076    0.588330D+01
    27708.5076    0.602618D+01
    27728.5076    0.617326D+01
    27748.5076    0.632245D+01
    27768.5076    0.647168D+01
    27788.5076    0.661870D+01
    27808.5076    0.676129D+01
    27828.5076    0.689725D+01
    27848.5076    0.702440D+01
    27868.5076    0.714064D+01
    27888.5076    0.724398D+01
    27908.5076    0.733259D+01
    27928.5076    0.740478D+01
    27948.5076    0.745905D+01
    27968.5076    0.749411D+01
    27988.5076    0.750894D+01
    28008.5076    0.750272D+01
    28028.5076    0.747495D+01
    28048.5076    0.742533D+01
    28068.5076    0.735386D+01
    28088.5076    0.726078D+01
    28108.5076    0.714661D+01
    28128.5076    0.701211D+01
    28148.5076    0.685824D+01
    28168.5076    0.668617D+01
    28188.5076    0.649712D+01
    28208.5076    0.629305D+01
    28228.5076    0.607536D+01
    28248.5076    0.584583D+01
    28268.5076    0.560630D+01
    28288.5076    0.535867D+01
    28308.5076    0.510483D+01
    28328.5076    0.484670D+01
    28348.5076    0.458613D+01
    28368.5076    0.432474D+01
    28388.5076    0.406466D+01
    28408.5076    0.380693D+01
    28428.5076    0.355382D+01
    28448.5076    0.330624D+01
    28468.5076    0.306544D+01
    28488.5076    0.283248D+01
    28508.5076    0.260828D+01
    28528.5076    0.239363D+01
    28548.5076    0.218912D+01
    28568.5076    0.199523D+01
    28588.5076    0.181201D+01
    28608.5076    0.164026D+01
    28628.5076    0.147970D+01
    28648.5076    0.133027D+01
    28668.5076    0.119179D+01
    28688.5076    0.106409D+01
    28708.5076    0.946808D+00
    28728.5076    0.839551D+00
    28748.5076    0.741885D+00
    28768.5076    0.653326D+00
    28788.5076    0.573360D+00
    28808.5076    0.501450D+00
    28828.5076    0.437034D+00
    28848.5076    0.379583D+00
    28868.5076    0.328558D+00
    28888.5076    0.283410D+00
    28908.5076    0.243625D+00
    28928.5076    0.208705D+00
    28948.5076    0.178174D+00
    28968.5076    0.151585D+00
    28988.5076    0.128519D+00
    29008.5076    0.108585D+00
    29028.5076    0.914243D-01
 -----------------------------

 Leave Link  718 at Mon Mar  4 15:35:10 2024, MaxMem= 14763950080 cpu:             565.6 elap:              17.8
 (Enter /apps/gaussian/g16-c01-avx2/g16/l9999.exe)

 ----------------------------------------------------------------------

 Electric dipole moment (input orientation):
 (Debye = 10**-18 statcoulomb cm , SI units = C m)
                  (au)            (Debye)         (10**-30 SI)
   Tot        0.113956D-04      0.289647D-04      0.966159D-04
   x          0.000000D+00      0.000000D+00      0.000000D+00
   y          0.000000D+00      0.000000D+00      0.000000D+00
   z         -0.113956D-04     -0.289647D-04     -0.966159D-04

 Dipole polarizability, Alpha (input orientation).
 (esu units = cm**3 , SI units = C**2 m**2 J**-1)
 Alpha(0;0):
               (au)            (10**-24 esu)      (10**-40 SI)
   iso        0.176832D+03      0.262039D+02      0.291557D+02
   aniso      0.114009D+03      0.168944D+02      0.187976D+02
   xx         0.156561D+03      0.231999D+02      0.258134D+02
   yx         0.463825D+02      0.687318D+01      0.764744D+01
   yy         0.217935D+03      0.322946D+02      0.359326D+02
   zx        -0.286008D+02     -0.423820D+01     -0.471564D+01
   zy         0.980833D+01      0.145344D+01      0.161717D+01
   zz         0.156001D+03      0.231170D+02      0.257212D+02

 ----------------------------------------------------------------------

 Dipole orientation:
     6         -5.95780071         -2.25569459          1.80160182
     6         -3.68342321         -2.69053896          3.02467069
     6         -2.24014386         -4.78685174          2.40939340
     6         -3.03589279         -6.48544113          0.56838365
     6         -5.32016304         -6.02351799         -0.64666135
     6         -6.77176151         -3.93051653         -0.03960524
     1         -7.08555244         -0.61609218          2.27475940
     1         -3.02558076         -1.38745225          4.45860570
     1         -0.45774236         -5.10658818          3.36757416
     1         -5.96567865         -7.31803523         -2.09746630
     1         -8.54092223         -3.60193746         -1.01380749
     6         -1.50263165         -8.80389133         -0.03871565
     1         -1.75521415         -9.29630322         -2.02872298
     1          0.50493177         -8.38883511          0.21391557
     6         -2.21017788        -11.08211422          1.59624592
     1         -4.22167810        -11.49268423          1.35028283
     1         -1.96553390        -10.58693069          3.58876415
     6         -0.65975505        -13.42689910          0.98238051
     1         -0.90431253        -13.92204720         -1.01015738
     1          1.35173075        -13.01635172          1.22846186
     6         -1.36743330        -15.70516220          2.61728286
     1         -3.37500729        -16.12011734          2.36459622
     1         -1.11488167        -15.21278796          4.60730522
     6          0.16574214        -18.02365088          2.01017359
     6         -0.62995362        -19.72213335          0.16906357
     6          2.44989939        -18.48574636          3.22540022
     6          0.81328083        -21.81850304         -0.44618906
     1         -2.41227061        -19.40229912         -0.78924153
     6          3.90142576        -20.57879137          2.61838933
     1          3.09534423        -17.19131227          4.67631071
     6          3.08753112        -22.25350151          0.77702746
     1          0.15546317        -23.12149587         -1.88022107
     1          5.67048693        -20.90752241          3.59272069
     1          4.21524525        -23.89314340          0.30391702

 Electric dipole moment (dipole orientation):
 (Debye = 10**-18 statcoulomb cm , SI units = C m)
                  (au)            (Debye)         (10**-30 SI)
   Tot        0.119094D-04      0.302707D-04      0.100972D-03
   x          0.000000D+00      0.000000D+00      0.000000D+00
   y          0.000000D+00      0.000000D+00      0.000000D+00
   z          0.119094D-04      0.302707D-04      0.100972D-03

 Dipole polarizability, Alpha (dipole orientation).
 (esu units = cm**3 , SI units = C**2 m**2 J**-1)
 Alpha(0;0):
               (au)            (10**-24 esu)      (10**-40 SI)
   iso        0.176832D+03      0.262039D+02      0.291557D+02
   aniso      0.114009D+03      0.168944D+02      0.187976D+02
   xx         0.171454D+03      0.254068D+02      0.282689D+02
   yx        -0.425761D+02     -0.630912D+01     -0.701985D+01
   yy         0.215825D+03      0.319820D+02      0.355848D+02
   zx         0.216052D+02      0.320156D+01      0.356222D+01
   zy         0.267124D+02      0.395836D+01      0.440427D+01
   zz         0.143218D+03      0.212228D+02      0.236135D+02

 ----------------------------------------------------------------------

 This type of calculation cannot be archived.


 Children are likely to live up to what you believe of them.
 -- Lady Bird Johnson
 Job cpu time:       0 days  0 hours  9 minutes 34.6 seconds.
 Elapsed time:       0 days  0 hours  0 minutes 18.1 seconds.
 File lengths (MBytes):  RWF=      6 Int=      0 D2E=      0 Chk=     15 Scr=      1
 Normal termination of Gaussian 16 at Mon Mar  4 15:35:10 2024.
