 Entering Gaussian System, Link 0=g16
 Input=Anthracene_n.gjf
 Output=Anthracene_n.log
 Initial command:
 /apps/gaussian/g16-c01-avx2/g16/l1.exe "/var/tmp/pbs.9195028.pbs/Gau-1381451.inp" -scrdir="/var/tmp/pbs.9195028.pbs/"
 Entering Link 1 = /apps/gaussian/g16-c01-avx2/g16/l1.exe PID=   1381452.
  
 Copyright (c) 1988-2019, Gaussian, Inc.  All Rights Reserved.
  
 This is part of the Gaussian(R) 16 program.  It is based on
 the Gaussian(R) 09 system (copyright 2009, Gaussian, Inc.),
 the Gaussian(R) 03 system (copyright 2003, Gaussian, Inc.),
 the Gaussian(R) 98 system (copyright 1998, Gaussian, Inc.),
 the Gaussian(R) 94 system (copyright 1995, Gaussian, Inc.),
 the Gaussian 92(TM) system (copyright 1992, Gaussian, Inc.),
 the Gaussian 90(TM) system (copyright 1990, Gaussian, Inc.),
 the Gaussian 88(TM) system (copyright 1988, Gaussian, Inc.),
 the Gaussian 86(TM) system (copyright 1986, Carnegie Mellon
 University), and the Gaussian 82(TM) system (copyright 1983,
 Carnegie Mellon University). Gaussian is a federally registered
 trademark of Gaussian, Inc.
  
 This software contains proprietary and confidential information,
 including trade secrets, belonging to Gaussian, Inc.
  
 This software is provided under written license and may be
 used, copied, transmitted, or stored only in accord with that
 written license.
  
 The following legend is applicable only to US Government
 contracts under FAR:
  
                    RESTRICTED RIGHTS LEGEND
  
 Use, reproduction and disclosure by the US Government is
 subject to restrictions as set forth in subparagraphs (a)
 and (c) of the Commercial Computer Software - Restricted
 Rights clause in FAR 52.227-19.
  
 Gaussian, Inc.
 340 Quinnipiac St., Bldg. 40, Wallingford CT 06492
  
  
 ---------------------------------------------------------------
 Warning -- This program may not be used in any manner that
 competes with the business of Gaussian, Inc. or will provide
 assistance to any competitor of Gaussian, Inc.  The licensee
 of this program is prohibited from giving any competitor of
 Gaussian, Inc. access to this program.  By using this program,
 the user acknowledges that Gaussian, Inc. is engaged in the
 business of creating and licensing software in the field of
 computational chemistry and represents and warrants to the
 licensee that it is not a competitor of Gaussian, Inc. and that
 it will not use this program in any manner prohibited above.
 ---------------------------------------------------------------
  

 Cite this work as:
 Gaussian 16, Revision C.01,
 M. J. Frisch, G. W. Trucks, H. B. Schlegel, G. E. Scuseria, 
 M. A. Robb, J. R. Cheeseman, G. Scalmani, V. Barone, 
 G. A. Petersson, H. Nakatsuji, X. Li, M. Caricato, A. V. Marenich, 
 J. Bloino, B. G. Janesko, R. Gomperts, B. Mennucci, H. P. Hratchian, 
 J. V. Ortiz, A. F. Izmaylov, J. L. Sonnenberg, D. Williams-Young, 
 F. Ding, F. Lipparini, F. Egidi, J. Goings, B. Peng, A. Petrone, 
 T. Henderson, D. Ranasinghe, V. G. Zakrzewski, J. Gao, N. Rega, 
 G. Zheng, W. Liang, M. Hada, M. Ehara, K. Toyota, R. Fukuda, 
 J. Hasegawa, M. Ishida, T. Nakajima, Y. Honda, O. Kitao, H. Nakai, 
 T. Vreven, K. Throssell, J. A. Montgomery, Jr., J. E. Peralta, 
 F. Ogliaro, M. J. Bearpark, J. J. Heyd, E. N. Brothers, K. N. Kudin, 
 V. N. Staroverov, T. A. Keith, R. Kobayashi, J. Normand, 
 K. Raghavachari, A. P. Rendell, J. C. Burant, S. S. Iyengar, 
 J. Tomasi, M. Cossi, J. M. Millam, M. Klene, C. Adamo, R. Cammi, 
 J. W. Ochterski, R. L. Martin, K. Morokuma, O. Farkas, 
 J. B. Foresman, and D. J. Fox, Gaussian, Inc., Wallingford CT, 2019.
 
 ******************************************
 Gaussian 16:  ES64L-G16RevC.01  3-Jul-2019
                 3-Apr-2024 
 ******************************************
 %mem=250GB
 %nprocshared=32
 Will use up to   32 processors via shared memory.
 %chk=Anthracene_n_1-1.chk
 --------------------------------------------
 #p opt freq b3lyp/def2tzvp geom=connectivity
 --------------------------------------------
 1/18=20,19=15,26=3,38=1,57=2/1,3;
 2/9=110,12=2,17=6,18=5,40=1/2;
 3/5=44,7=101,11=2,25=1,30=1,71=1,74=-5/1,2,3;
 4//1;
 5/5=2,38=5/2;
 6/7=2,8=2,9=2,10=2,28=1/1;
 7//1,2,3,16;
 1/18=20,19=15,26=3/3(2);
 2/9=110/2;
 99//99;
 2/9=110/2;
 3/5=44,7=101,11=2,25=1,30=1,71=1,74=-5/1,2,3;
 4/5=5,16=3,69=1/1;
 5/5=2,38=5/2;
 7//1,2,3,16;
 1/18=20,19=15,26=3/3(-5);
 2/9=110/2;
 6/7=2,8=2,9=2,10=2,19=2,28=1/1;
 99/9=1/99;
 Leave Link    1 at Wed Apr  3 15:40:13 2024, MaxMem= 33554432000 cpu:               0.6 elap:               0.0
 (Enter /apps/gaussian/g16-c01-avx2/g16/l101.exe)
 ----------------------------------------------------------------------
 Ground state optimization and frequency calculation for neutral anthra
 cene.
 ----------------------------------------------------------------------
 Symbolic Z-matrix:
 Charge =  0 Multiplicity = 1
 C                    -7.0226   -3.18779  -0.01292 
 C                    -5.65798  -3.18779  -0.01292 
 C                    -4.92509  -1.95657  -0.01292 
 C                    -5.64909  -0.72482  -0.01843 
 C                    -7.08133  -0.76631  -0.01973 
 C                    -7.74511  -1.95861  -0.01636 
 C                    -3.52619  -1.93368  -0.00802 
 C                    -4.94871   0.48634  -0.02016 
 C                    -3.54977   0.50923  -0.01453 
 C                    -2.8258   -0.72248  -0.00711 
 C                    -1.39362  -0.68085   0. 
 H                    -0.84775  -1.63638   0.0066 
 C                    -0.72988   0.5115    0.00104 
 C                    -1.45236   1.74062  -0.00713 
 C                    -2.81701   1.74047  -0.0145 
 H                    -2.96849  -2.88292  -0.0037 
 H                    -7.58848  -4.13107  -0.01051 
 H                    -5.08865  -4.12953  -0.00981 
 H                    -7.62714   0.18923  -0.02434 
 H                    -8.84451  -1.99477  -0.01779 
 H                    -5.50685   1.43532  -0.02442 
 H                     0.36953   0.54741   0.0072 
 H                    -0.88628   2.6838   -0.00604 
 H                    -3.38655   2.68209  -0.02077 
 
 ITRead=  0  0  0  0  0  0  0  0  0  0  0  0  0  0  0  0  0  0  0  0
 ITRead=  0  0  0  0
 MicOpt= -1 -1 -1 -1 -1 -1 -1 -1 -1 -1 -1 -1 -1 -1 -1 -1 -1 -1 -1 -1
 MicOpt= -1 -1 -1 -1
 NAtoms=     24 NQM=       24 NQMF=       0 NMMI=      0 NMMIF=      0
                NMic=       0 NMicF=      0.
                    Isotopes and Nuclear Properties:
 (Nuclear quadrupole moments (NQMom) in fm**2, nuclear magnetic moments (NMagM)
  in nuclear magnetons)

  Atom         1           2           3           4           5           6           7           8           9          10
 IAtWgt=          12          12          12          12          12          12          12          12          12          12
 AtmWgt=  12.0000000  12.0000000  12.0000000  12.0000000  12.0000000  12.0000000  12.0000000  12.0000000  12.0000000  12.0000000
 NucSpn=           0           0           0           0           0           0           0           0           0           0
 AtZEff=  -0.0000000  -0.0000000  -0.0000000  -0.0000000  -0.0000000  -0.0000000  -0.0000000  -0.0000000  -0.0000000  -0.0000000
 NQMom=    0.0000000   0.0000000   0.0000000   0.0000000   0.0000000   0.0000000   0.0000000   0.0000000   0.0000000   0.0000000
 NMagM=    0.0000000   0.0000000   0.0000000   0.0000000   0.0000000   0.0000000   0.0000000   0.0000000   0.0000000   0.0000000
 AtZNuc=   6.0000000   6.0000000   6.0000000   6.0000000   6.0000000   6.0000000   6.0000000   6.0000000   6.0000000   6.0000000

  Atom        11          12          13          14          15          16          17          18          19          20
 IAtWgt=          12           1          12          12          12           1           1           1           1           1
 AtmWgt=  12.0000000   1.0078250  12.0000000  12.0000000  12.0000000   1.0078250   1.0078250   1.0078250   1.0078250   1.0078250
 NucSpn=           0           1           0           0           0           1           1           1           1           1
 AtZEff=  -0.0000000  -0.0000000  -0.0000000  -0.0000000  -0.0000000  -0.0000000  -0.0000000  -0.0000000  -0.0000000  -0.0000000
 NQMom=    0.0000000   0.0000000   0.0000000   0.0000000   0.0000000   0.0000000   0.0000000   0.0000000   0.0000000   0.0000000
 NMagM=    0.0000000   2.7928460   0.0000000   0.0000000   0.0000000   2.7928460   2.7928460   2.7928460   2.7928460   2.7928460
 AtZNuc=   6.0000000   1.0000000   6.0000000   6.0000000   6.0000000   1.0000000   1.0000000   1.0000000   1.0000000   1.0000000

  Atom        21          22          23          24
 IAtWgt=           1           1           1           1
 AtmWgt=   1.0078250   1.0078250   1.0078250   1.0078250
 NucSpn=           1           1           1           1
 AtZEff=  -0.0000000  -0.0000000  -0.0000000  -0.0000000
 NQMom=    0.0000000   0.0000000   0.0000000   0.0000000
 NMagM=    2.7928460   2.7928460   2.7928460   2.7928460
 AtZNuc=   1.0000000   1.0000000   1.0000000   1.0000000
 Leave Link  101 at Wed Apr  3 15:40:14 2024, MaxMem= 33554432000 cpu:               5.2 elap:               0.2
 (Enter /apps/gaussian/g16-c01-avx2/g16/l103.exe)

 GradGradGradGradGradGradGradGradGradGradGradGradGradGradGradGradGradGrad
 Berny optimization.
 Initialization pass.
                           ----------------------------
                           !    Initial Parameters    !
                           ! (Angstroms and Degrees)  !
 --------------------------                            --------------------------
 ! Name  Definition              Value          Derivative Info.                !
 --------------------------------------------------------------------------------
 ! R1    R(1,2)                  1.3646         estimate D2E/DX2                !
 ! R2    R(1,6)                  1.4258         estimate D2E/DX2                !
 ! R3    R(1,17)                 1.1            estimate D2E/DX2                !
 ! R4    R(2,3)                  1.4328         estimate D2E/DX2                !
 ! R5    R(2,18)                 1.1005         estimate D2E/DX2                !
 ! R6    R(3,4)                  1.4288         estimate D2E/DX2                !
 ! R7    R(3,7)                  1.3991         estimate D2E/DX2                !
 ! R8    R(4,5)                  1.4328         estimate D2E/DX2                !
 ! R9    R(4,8)                  1.3991         estimate D2E/DX2                !
 ! R10   R(5,6)                  1.3646         estimate D2E/DX2                !
 ! R11   R(5,19)                 1.1005         estimate D2E/DX2                !
 ! R12   R(6,20)                 1.1            estimate D2E/DX2                !
 ! R13   R(7,10)                 1.3991         estimate D2E/DX2                !
 ! R14   R(7,16)                 1.101          estimate D2E/DX2                !
 ! R15   R(8,9)                  1.3991         estimate D2E/DX2                !
 ! R16   R(8,21)                 1.101          estimate D2E/DX2                !
 ! R17   R(9,10)                 1.4287         estimate D2E/DX2                !
 ! R18   R(9,15)                 1.4328         estimate D2E/DX2                !
 ! R19   R(10,11)                1.4328         estimate D2E/DX2                !
 ! R20   R(11,12)                1.1005         estimate D2E/DX2                !
 ! R21   R(11,13)                1.3646         estimate D2E/DX2                !
 ! R22   R(13,14)                1.4258         estimate D2E/DX2                !
 ! R23   R(13,22)                1.1            estimate D2E/DX2                !
 ! R24   R(14,15)                1.3647         estimate D2E/DX2                !
 ! R25   R(14,23)                1.1            estimate D2E/DX2                !
 ! R26   R(15,24)                1.1005         estimate D2E/DX2                !
 ! A1    A(2,1,6)              120.4466         estimate D2E/DX2                !
 ! A2    A(2,1,17)             120.9594         estimate D2E/DX2                !
 ! A3    A(6,1,17)             118.5939         estimate D2E/DX2                !
 ! A4    A(1,2,3)              120.7635         estimate D2E/DX2                !
 ! A5    A(1,2,18)             121.155          estimate D2E/DX2                !
 ! A6    A(3,2,18)             118.0813         estimate D2E/DX2                !
 ! A7    A(2,3,4)              118.7901         estimate D2E/DX2                !
 ! A8    A(2,3,7)              121.7006         estimate D2E/DX2                !
 ! A9    A(4,3,7)              119.5092         estimate D2E/DX2                !
 ! A10   A(3,4,5)              118.7868         estimate D2E/DX2                !
 ! A11   A(3,4,8)              119.5145         estimate D2E/DX2                !
 ! A12   A(5,4,8)              121.6986         estimate D2E/DX2                !
 ! A13   A(4,5,6)              120.765          estimate D2E/DX2                !
 ! A14   A(4,5,19)             118.0759         estimate D2E/DX2                !
 ! A15   A(6,5,19)             121.1591         estimate D2E/DX2                !
 ! A16   A(1,6,5)              120.4476         estimate D2E/DX2                !
 ! A17   A(1,6,20)             118.5627         estimate D2E/DX2                !
 ! A18   A(5,6,20)             120.9896         estimate D2E/DX2                !
 ! A19   A(3,7,10)             120.9763         estimate D2E/DX2                !
 ! A20   A(3,7,16)             119.4985         estimate D2E/DX2                !
 ! A21   A(10,7,16)            119.5252         estimate D2E/DX2                !
 ! A22   A(4,8,9)              120.9759         estimate D2E/DX2                !
 ! A23   A(4,8,21)             119.499          estimate D2E/DX2                !
 ! A24   A(9,8,21)             119.5251         estimate D2E/DX2                !
 ! A25   A(8,9,10)             119.5096         estimate D2E/DX2                !
 ! A26   A(8,9,15)             121.6954         estimate D2E/DX2                !
 ! A27   A(10,9,15)            118.7949         estimate D2E/DX2                !
 ! A28   A(7,10,9)             119.5142         estimate D2E/DX2                !
 ! A29   A(7,10,11)            121.7035         estimate D2E/DX2                !
 ! A30   A(9,10,11)            118.7822         estimate D2E/DX2                !
 ! A31   A(10,11,12)           118.0746         estimate D2E/DX2                !
 ! A32   A(10,11,13)           120.7675         estimate D2E/DX2                !
 ! A33   A(12,11,13)           121.1578         estimate D2E/DX2                !
 ! A34   A(11,13,14)           120.4489         estimate D2E/DX2                !
 ! A35   A(11,13,22)           120.9732         estimate D2E/DX2                !
 ! A36   A(14,13,22)           118.5779         estimate D2E/DX2                !
 ! A37   A(13,14,15)           120.4423         estimate D2E/DX2                !
 ! A38   A(13,14,23)           118.5802         estimate D2E/DX2                !
 ! A39   A(15,14,23)           120.9774         estimate D2E/DX2                !
 ! A40   A(9,15,14)            120.7641         estimate D2E/DX2                !
 ! A41   A(9,15,24)            118.0731         estimate D2E/DX2                !
 ! A42   A(14,15,24)           121.1628         estimate D2E/DX2                !
 ! D1    D(6,1,2,3)              0.1607         estimate D2E/DX2                !
 ! D2    D(6,1,2,18)           179.9717         estimate D2E/DX2                !
 ! D3    D(17,1,2,3)          -179.854          estimate D2E/DX2                !
 ! D4    D(17,1,2,18)           -0.0429         estimate D2E/DX2                !
 ! D5    D(2,1,6,5)              0.0013         estimate D2E/DX2                !
 ! D6    D(2,1,6,20)           179.9091         estimate D2E/DX2                !
 ! D7    D(17,1,6,5)          -179.9844         estimate D2E/DX2                !
 ! D8    D(17,1,6,20)           -0.0766         estimate D2E/DX2                !
 ! D9    D(1,2,3,4)             -0.2525         estimate D2E/DX2                !
 ! D10   D(1,2,3,7)            179.7643         estimate D2E/DX2                !
 ! D11   D(18,2,3,4)           179.9308         estimate D2E/DX2                !
 ! D12   D(18,2,3,7)            -0.0524         estimate D2E/DX2                !
 ! D13   D(2,3,4,5)              0.1839         estimate D2E/DX2                !
 ! D14   D(2,3,4,8)           -179.9227         estimate D2E/DX2                !
 ! D15   D(7,3,4,5)           -179.8326         estimate D2E/DX2                !
 ! D16   D(7,3,4,8)              0.0609         estimate D2E/DX2                !
 ! D17   D(2,3,7,10)          -179.9531         estimate D2E/DX2                !
 ! D18   D(2,3,7,16)            -0.021          estimate D2E/DX2                !
 ! D19   D(4,3,7,10)             0.0639         estimate D2E/DX2                !
 ! D20   D(4,3,7,16)           179.996          estimate D2E/DX2                !
 ! D21   D(3,4,5,6)             -0.0283         estimate D2E/DX2                !
 ! D22   D(3,4,5,19)          -179.98           estimate D2E/DX2                !
 ! D23   D(8,4,5,6)           -179.9193         estimate D2E/DX2                !
 ! D24   D(8,4,5,19)             0.129          estimate D2E/DX2                !
 ! D25   D(3,4,8,9)             -0.0966         estimate D2E/DX2                !
 ! D26   D(3,4,8,21)           179.9991         estimate D2E/DX2                !
 ! D27   D(5,4,8,9)            179.7937         estimate D2E/DX2                !
 ! D28   D(5,4,8,21)            -0.1107         estimate D2E/DX2                !
 ! D29   D(4,5,6,1)             -0.0673         estimate D2E/DX2                !
 ! D30   D(4,5,6,20)          -179.9728         estimate D2E/DX2                !
 ! D31   D(19,5,6,1)           179.8829         estimate D2E/DX2                !
 ! D32   D(19,5,6,20)           -0.0226         estimate D2E/DX2                !
 ! D33   D(3,7,10,9)            -0.1515         estimate D2E/DX2                !
 ! D34   D(3,7,10,11)          179.9003         estimate D2E/DX2                !
 ! D35   D(16,7,10,9)          179.9164         estimate D2E/DX2                !
 ! D36   D(16,7,10,11)          -0.0317         estimate D2E/DX2                !
 ! D37   D(4,8,9,10)             0.0089         estimate D2E/DX2                !
 ! D38   D(4,8,9,15)          -179.9202         estimate D2E/DX2                !
 ! D39   D(21,8,9,10)          179.9133         estimate D2E/DX2                !
 ! D40   D(21,8,9,15)           -0.0159         estimate D2E/DX2                !
 ! D41   D(8,9,10,7)             0.115          estimate D2E/DX2                !
 ! D42   D(8,9,10,11)         -179.9353         estimate D2E/DX2                !
 ! D43   D(15,9,10,7)         -179.9538         estimate D2E/DX2                !
 ! D44   D(15,9,10,11)          -0.0041         estimate D2E/DX2                !
 ! D45   D(8,9,15,14)          179.9107         estimate D2E/DX2                !
 ! D46   D(8,9,15,24)           -0.1009         estimate D2E/DX2                !
 ! D47   D(10,9,15,14)          -0.0189         estimate D2E/DX2                !
 ! D48   D(10,9,15,24)         179.9695         estimate D2E/DX2                !
 ! D49   D(7,10,11,12)          -0.106          estimate D2E/DX2                !
 ! D50   D(7,10,11,13)        -179.9865         estimate D2E/DX2                !
 ! D51   D(9,10,11,12)         179.9455         estimate D2E/DX2                !
 ! D52   D(9,10,11,13)           0.065          estimate D2E/DX2                !
 ! D53   D(10,11,13,14)         -0.1018         estimate D2E/DX2                !
 ! D54   D(10,11,13,22)        179.9569         estimate D2E/DX2                !
 ! D55   D(12,11,13,14)       -179.9786         estimate D2E/DX2                !
 ! D56   D(12,11,13,22)          0.0801         estimate D2E/DX2                !
 ! D57   D(11,13,14,15)          0.078          estimate D2E/DX2                !
 ! D58   D(11,13,14,23)        179.9999         estimate D2E/DX2                !
 ! D59   D(22,13,14,15)       -179.9793         estimate D2E/DX2                !
 ! D60   D(22,13,14,23)         -0.0574         estimate D2E/DX2                !
 ! D61   D(13,14,15,9)          -0.0166         estimate D2E/DX2                !
 ! D62   D(13,14,15,24)        179.9954         estimate D2E/DX2                !
 ! D63   D(23,14,15,9)        -179.9366         estimate D2E/DX2                !
 ! D64   D(23,14,15,24)          0.0754         estimate D2E/DX2                !
 --------------------------------------------------------------------------------
 Trust Radius=3.00D-01 FncErr=1.00D-07 GrdErr=1.00D-06 EigMax=2.50D+02 EigMin=1.00D-04
 Number of steps in this run=    142 maximum allowed number of steps=    144.
 GradGradGradGradGradGradGradGradGradGradGradGradGradGradGradGradGradGrad

 Leave Link  103 at Wed Apr  3 15:40:14 2024, MaxMem= 33554432000 cpu:               0.3 elap:               0.0
 (Enter /apps/gaussian/g16-c01-avx2/g16/l202.exe)
                          Input orientation:                          
 ---------------------------------------------------------------------
 Center     Atomic      Atomic             Coordinates (Angstroms)
 Number     Number       Type             X           Y           Z
 ---------------------------------------------------------------------
      1          6           0       -7.022603   -3.187791   -0.012916
      2          6           0       -5.657980   -3.187791   -0.012916
      3          6           0       -4.925089   -1.956570   -0.012916
      4          6           0       -5.649086   -0.724823   -0.018434
      5          6           0       -7.081326   -0.766314   -0.019734
      6          6           0       -7.745109   -1.958607   -0.016363
      7          6           0       -3.526188   -1.933681   -0.008020
      8          6           0       -4.948709    0.486344   -0.020155
      9          6           0       -3.549768    0.509228   -0.014530
     10          6           0       -2.825799   -0.722475   -0.007110
     11          6           0       -1.393617   -0.680851    0.000000
     12          1           0       -0.847747   -1.636378    0.006601
     13          6           0       -0.729880    0.511504    0.001042
     14          6           0       -1.452363    1.740619   -0.007130
     15          6           0       -2.817006    1.740474   -0.014497
     16          1           0       -2.968485   -2.882918   -0.003701
     17          1           0       -7.588475   -4.131069   -0.010512
     18          1           0       -5.088654   -4.129525   -0.009810
     19          1           0       -7.627139    0.189232   -0.024338
     20          1           0       -8.844507   -1.994772   -0.017794
     21          1           0       -5.506848    1.435325   -0.024423
     22          1           0        0.369526    0.547408    0.007202
     23          1           0       -0.886283    2.683796   -0.006035
     24          1           0       -3.386549    2.682091   -0.020769
 ---------------------------------------------------------------------
                    Distance matrix (angstroms):
                    1          2          3          4          5
     1  C    0.000000
     2  C    1.364623   0.000000
     3  C    2.432174   1.432841   0.000000
     4  C    2.820069   2.462990   1.428777   0.000000
     5  C    2.422199   2.808827   2.462948   1.432841   0.000000
     6  C    1.425805   2.422192   2.820023   2.432188   1.364618
     7  C    3.714530   2.473328   1.399097   2.442978   3.741910
     8  C    4.219047   3.741976   2.443039   1.399091   2.473299
     9  C    5.072330   4.255879   2.823415   2.435166   3.754855
    10  C    4.867338   3.754872   2.435168   2.823311   4.255772
    11  C    6.162013   4.946686   3.754853   4.255736   5.688385
    12  H    6.366797   5.054266   4.089942   4.887168   6.294062
    13  C    7.299544   6.162073   4.867377   5.072225   6.478743
    14  C    7.437529   6.478925   5.072383   4.867342   6.161988
    15  C    6.478800   5.688491   4.255837   3.754781   4.946558
    16  H    4.065576   2.706735   2.164834   3.441397   4.625552
    17  H    1.099996   2.148625   3.438325   3.919669   3.402773
    18  H    2.151054   1.100457   2.179105   3.450530   3.909224
    19  H    3.430726   3.909220   3.450460   2.179042   1.100455
    20  H    2.177763   3.402539   3.919607   3.438530   2.148935
    21  H    4.865269   4.625600   3.441443   2.164834   2.706699
    22  H    8.282251   7.091047   5.856898   6.151660   7.565830
    23  H    8.492939   7.566021   6.151829   5.856887   7.090980
    24  H    6.904815   6.294043   4.887161   4.089761   5.053996
                    6          7          8          9         10
     6  C    0.000000
     7  C    4.219003   0.000000
     8  C    3.714519   2.807175   0.000000
     9  C    4.867350   2.443031   1.399139   0.000000
    10  C    5.072250   1.399130   2.442982   1.428733   0.000000
    11  C    6.478764   2.473359   3.741848   2.462821   1.432804
    12  H    6.904923   2.694930   4.617852   3.450361   2.179013
    13  C    7.437418   3.714613   4.218957   2.819932   2.432210
    14  C    7.299521   4.219151   3.714540   2.432177   2.820134
    15  C    6.161932   3.741978   2.473263   1.432797   2.462976
    16  H    4.865249   1.100955   3.908131   3.441607   2.165152
    17  H    2.178109   4.618517   5.318737   6.151709   5.856757
    18  H    3.430697   2.695002   4.618002   4.887353   4.090050
    19  H    2.151091   4.617881   2.694862   4.089920   4.887164
    20  H    1.099994   5.318679   4.618786   5.856986   6.151723
    21  H    4.065544   3.908131   1.100955   2.165159   3.441573
    22  H    8.492819   4.618725   5.318656   3.919540   3.438446
    23  H    8.282240   5.318853   4.618690   3.438455   3.919746
    24  H    6.366564   4.617901   2.694745   2.178994   3.450463
                   11         12         13         14         15
    11  C    0.000000
    12  H    1.100477   0.000000
    13  C    1.364646   2.151121   0.000000
    14  C    2.422193   3.430723   1.425753   0.000000
    15  C    2.808747   3.909163   2.422128   1.364663   0.000000
    16  H    2.707272   2.459979   4.066138   4.865771   4.625885
    17  H    7.090866   7.187572   8.282146   8.492856   7.565841
    18  H    5.054379   4.919486   6.366960   6.905158   6.294227
    19  H    6.294000   7.020966   6.904831   6.366707   5.054090
    20  H    7.565875   8.004824   8.492876   8.282334   7.091040
    21  H    4.625740   5.580640   4.865544   4.066000   2.707114
    22  H    2.148801   2.500135   1.100009   2.177897   3.402626
    23  H    3.402686   4.320364   2.177927   1.100014   2.148865
    24  H    3.909167   5.009535   3.430716   2.151193   1.100482
                   16         17         18         19         20
    16  H    0.000000
    17  H    4.785628   0.000000
    18  H    2.459509   2.499822   0.000000
    19  H    5.580465   4.320496   5.009569   0.000000
    20  H    5.942780   2.478192   4.320147   2.500380   0.000000
    21  H    5.009086   5.942904   5.580560   2.459346   4.785977
    22  H    4.786395   9.231373   7.187887   8.004745   9.558332
    23  H    5.943389   9.558336   8.005078   7.187651   9.231601
    24  H    5.580716   8.004713   7.021068   4.919041   7.187653
                   21         22         23         24
    21  H    0.000000
    22  H    5.943161   0.000000
    23  H    4.786297   2.478182   0.000000
    24  H    2.459696   4.320388   2.500310   0.000000
 Stoichiometry    C14H10
 Framework group  C1[X(C14H10)]
 Deg. of freedom    66
 Full point group                 C1      NOp   1
 Largest Abelian subgroup         C1      NOp   1
 Largest concise Abelian subgroup C1      NOp   1
                         Standard orientation:                         
 ---------------------------------------------------------------------
 Center     Atomic      Atomic             Coordinates (Angstroms)
 Number     Number       Type             X           Y           Z
 ---------------------------------------------------------------------
      1          6           0        3.649787    0.712811    0.001886
      2          6           0        2.473390    1.404376   -0.002930
      3          6           0        1.217617    0.714398   -0.002230
      4          6           0        1.217524   -0.714379   -0.001906
      5          6           0        2.473241   -1.404448    0.001738
      6          6           0        3.649704   -0.712992    0.004269
      7          6           0        0.000062    1.403622   -0.002210
      8          6           0       -0.000053   -1.403553   -0.002866
      9          6           0       -1.217642   -0.714301   -0.002117
     10          6           0       -1.217550    0.714431   -0.000539
     11          6           0       -2.473295    1.404380    0.001627
     12          1           0       -2.459631    2.504770    0.003752
     13          6           0       -3.649756    0.712865    0.003509
     14          6           0       -3.649817   -0.712886    0.001167
     15          6           0       -2.473316   -1.404366   -0.001384
     16          1           0        0.000341    2.504577   -0.002393
     17          1           0        4.615647    1.239215    0.003770
     18          1           0        2.459849    2.504748   -0.004346
     19          1           0        2.459515   -2.504817    0.001610
     20          1           0        4.615790   -1.238975    0.006622
     21          1           0        0.000173   -2.504508   -0.002632
     22          1           0       -4.615725    1.239096    0.005885
     23          1           0       -4.615811   -1.239083    0.002781
     24          1           0       -2.459523   -2.504760   -0.003133
 ---------------------------------------------------------------------
 Rotational constants (GHZ):           2.1508332           0.4534727           0.3745128
 Leave Link  202 at Wed Apr  3 15:40:14 2024, MaxMem= 33554432000 cpu:               0.1 elap:               0.0
 (Enter /apps/gaussian/g16-c01-avx2/g16/l301.exe)
 Standard basis: def2TZVP (5D, 7F)
 Ernie: Thresh=  0.10000D-02 Tol=  0.10000D-05 Strict=F.
 There are   564 symmetry adapted cartesian basis functions of A   symmetry.
 There are   494 symmetry adapted basis functions of A   symmetry.
   494 basis functions,   794 primitive gaussians,   564 cartesian basis functions
    47 alpha electrons       47 beta electrons
       nuclear repulsion energy       766.4585602365 Hartrees.
 IExCor=  402 DFT=T Ex+Corr=B3LYP ExCW=0 ScaHFX=  0.200000
 ScaDFX=  0.800000  0.720000  1.000000  0.810000 ScalE2=  1.000000  1.000000
 IRadAn=      5 IRanWt=     -1 IRanGd=            0 ICorTp=0 IEmpDi=  4
 NAtoms=   24 NActive=   24 NUniq=   24 SFac= 1.00D+00 NAtFMM=   60 NAOKFM=F Big=F
 Integral buffers will be    131072 words long.
 Raffenetti 2 integral format.
 Two-electron integral symmetry is turned on.
 Leave Link  301 at Wed Apr  3 15:40:14 2024, MaxMem= 33554432000 cpu:               0.7 elap:               0.0
 (Enter /apps/gaussian/g16-c01-avx2/g16/l302.exe)
 NPDir=0 NMtPBC=     1 NCelOv=     1 NCel=       1 NClECP=     1 NCelD=      1
         NCelK=      1 NCelE2=     1 NClLst=     1 CellRange=     0.0.
 One-electron integrals computed using PRISM.
 One-electron integral symmetry used in STVInt
   1 Symmetry operations used in ECPInt.
 ECPInt:  NShTT=   18915 NPrTT=   58308 LenC2=   17605 LenP2D=   40917.
 LDataN:  DoStor=T MaxTD1= 6 Len=  172
 NBasis=   494 RedAO= T EigKep=  5.20D-06  NBF=   494
 NBsUse=   494 1.00D-06 EigRej= -1.00D+00 NBFU=   494
 Precomputing XC quadrature grid using
 IXCGrd= 4 IRadAn=           5 IRanWt=          -1 IRanGd=           0 AccXCQ= 0.00D+00.
 Generated NRdTot=       0 NPtTot=           0 NUsed=           0 NTot=          32
 NSgBfM=   558   558   558   558   558 MxSgAt=    24 MxSgA2=    24.
 Leave Link  302 at Wed Apr  3 15:40:14 2024, MaxMem= 33554432000 cpu:              13.6 elap:               0.4
 (Enter /apps/gaussian/g16-c01-avx2/g16/l303.exe)
 DipDrv:  MaxL=1.
 Leave Link  303 at Wed Apr  3 15:40:14 2024, MaxMem= 33554432000 cpu:               1.9 elap:               0.1
 (Enter /apps/gaussian/g16-c01-avx2/g16/l401.exe)
 ExpMin= 9.52D-02 ExpMax= 1.36D+04 ExpMxC= 4.63D+02 IAcc=3 IRadAn=         5 AccDes= 0.00D+00
 Harris functional with IExCor=  402 and IRadAn=       5 diagonalized for initial guess.
 HarFok:  IExCor=  402 AccDes= 0.00D+00 IRadAn=         5 IDoV= 1 UseB2=F ITyADJ=14
 ICtDFT=  3500011 ScaDFX=  1.000000  1.000000  1.000000  1.000000
 FoFCou: FMM=F IPFlag=           0 FMFlag=      100000 FMFlg1=           0
         NFxFlg=           0 DoJE=T BraDBF=F KetDBF=T FulRan=T
         wScrn=  0.000000 ICntrl=       500 IOpCl=  0 I1Cent=   200000004 NGrid=           0
         NMat0=    1 NMatS0=      1 NMatT0=    0 NMatD0=    1 NMtDS0=    0 NMtDT0=    0
 Petite list used in FoFCou.
 Harris En= -539.767322728091    
 JPrj=0 DoOrth=F DoCkMO=F.
 Leave Link  401 at Wed Apr  3 15:40:15 2024, MaxMem= 33554432000 cpu:              30.0 elap:               1.0
 (Enter /apps/gaussian/g16-c01-avx2/g16/l502.exe)
 Integral symmetry usage will be decided dynamically.
 Closed shell SCF:
 Using DIIS extrapolation, IDIIS=  1040.
 NGot= 33554432000 LenX= 33553772274 LenY= 33553453614
 Requested convergence on RMS density matrix=1.00D-08 within 128 cycles.
 Requested convergence on MAX density matrix=1.00D-06.
 Requested convergence on             energy=1.00D-06.
 No special actions if energy rises.
 Fock matrices will be formed incrementally for  20 cycles.
 Integral accuracy reduced to 1.0D-05 until final iterations.

 Cycle   1  Pass 0  IDiag  1:
 FoFJK:  IHMeth= 1 ICntrl=       0 DoSepK=F KAlg= 0 I1Cent=           0 FoldK=F
 IRaf= 880000000 NMat=       1 IRICut=       1 DoRegI=T DoRafI=F ISym2E= 0 IDoP0=0 IntGTp=1.
 FoFCou: FMM=F IPFlag=           0 FMFlag=      100000 FMFlg1=           0
         NFxFlg=           0 DoJE=F BraDBF=F KetDBF=F FulRan=T
         wScrn=  0.000000 ICntrl=         0 IOpCl=  0 I1Cent=           0 NGrid=           0
         NMat0=    1 NMatS0=      1 NMatT0=    0 NMatD0=    1 NMtDS0=    0 NMtDT0=    0
 Symmetry not used in FoFCou.
 E= -539.393978420494    
 DIIS: error= 3.70D-02 at cycle   1 NSaved=   1.
 NSaved= 1 IEnMin= 1 EnMin= -539.393978420494     IErMin= 1 ErrMin= 3.70D-02
 ErrMax= 3.70D-02  0.00D+00 EMaxC= 1.00D-01 BMatC= 3.18D-01 BMatP= 3.18D-01
 IDIUse=3 WtCom= 6.30D-01 WtEn= 3.70D-01
 Coeff-Com:  0.100D+01
 Coeff-En:   0.100D+01
 Coeff:      0.100D+01
 Gap=     0.131 Goal=   None    Shift=    0.000
 GapD=    0.131 DampG=1.000 DampE=0.500 DampFc=0.5000 IDamp=-1.
 Damping current iteration by 5.00D-01
 RMSDP=1.28D-02 MaxDP=4.69D-01              OVMax= 1.71D-01

 Cycle   2  Pass 0  IDiag  1:
 RMSU=  6.38D-03    CP:  1.01D+00
 E= -539.544562511284     Delta-E=       -0.150584090791 Rises=F Damp=T
 DIIS: error= 6.15D-03 at cycle   2 NSaved=   2.
 NSaved= 2 IEnMin= 2 EnMin= -539.544562511284     IErMin= 2 ErrMin= 6.15D-03
 ErrMax= 6.15D-03  0.00D+00 EMaxC= 1.00D-01 BMatC= 1.77D-02 BMatP= 3.18D-01
 IDIUse=3 WtCom= 9.38D-01 WtEn= 6.15D-02
 Coeff-Com: -0.190D-01 0.102D+01
 Coeff-En:   0.272D-01 0.973D+00
 Coeff:     -0.161D-01 0.102D+01
 Gap=     0.238 Goal=   None    Shift=    0.000
 RMSDP=3.12D-03 MaxDP=1.26D-01 DE=-1.51D-01 OVMax= 1.07D-01

 Cycle   3  Pass 0  IDiag  1:
 RMSU=  1.35D-03    CP:  9.75D-01  5.60D-01
 E= -539.711377761091     Delta-E=       -0.166815249807 Rises=F Damp=F
 DIIS: error= 7.59D-03 at cycle   3 NSaved=   3.
 NSaved= 3 IEnMin= 3 EnMin= -539.711377761091     IErMin= 2 ErrMin= 6.15D-03
 ErrMax= 7.59D-03  0.00D+00 EMaxC= 1.00D-01 BMatC= 8.68D-03 BMatP= 1.77D-02
 IDIUse=3 WtCom= 9.24D-01 WtEn= 7.59D-02
 Coeff-Com: -0.683D-01 0.412D+00 0.656D+00
 Coeff-En:   0.000D+00 0.000D+00 0.100D+01
 Coeff:     -0.632D-01 0.381D+00 0.682D+00
 Gap=     0.132 Goal=   None    Shift=    0.000
 RMSDP=1.12D-03 MaxDP=4.05D-02 DE=-1.67D-01 OVMax= 2.48D-02

 Cycle   4  Pass 0  IDiag  1:
 RMSU=  4.21D-04    CP:  9.82D-01  7.22D-01  9.36D-01
 E= -539.718521795535     Delta-E=       -0.007144034444 Rises=F Damp=F
 DIIS: error= 3.73D-03 at cycle   4 NSaved=   4.
 NSaved= 4 IEnMin= 4 EnMin= -539.718521795535     IErMin= 4 ErrMin= 3.73D-03
 ErrMax= 3.73D-03  0.00D+00 EMaxC= 1.00D-01 BMatC= 2.04D-03 BMatP= 8.68D-03
 IDIUse=3 WtCom= 9.63D-01 WtEn= 3.73D-02
 Coeff-Com: -0.368D-01 0.137D+00 0.376D+00 0.524D+00
 Coeff-En:   0.000D+00 0.000D+00 0.121D+00 0.879D+00
 Coeff:     -0.354D-01 0.131D+00 0.367D+00 0.537D+00
 Gap=     0.131 Goal=   None    Shift=    0.000
 RMSDP=8.53D-04 MaxDP=3.49D-02 DE=-7.14D-03 OVMax= 1.19D-02

 Cycle   5  Pass 0  IDiag  1:
 RMSU=  2.40D-04    CP:  9.89D-01  8.50D-01  9.03D-01  9.43D-01
 E= -539.720289476812     Delta-E=       -0.001767681277 Rises=F Damp=F
 DIIS: error= 7.71D-04 at cycle   5 NSaved=   5.
 NSaved= 5 IEnMin= 5 EnMin= -539.720289476812     IErMin= 5 ErrMin= 7.71D-04
 ErrMax= 7.71D-04  0.00D+00 EMaxC= 1.00D-01 BMatC= 9.85D-05 BMatP= 2.04D-03
 IDIUse=3 WtCom= 9.92D-01 WtEn= 7.71D-03
 Coeff-Com: -0.902D-02 0.176D-01 0.880D-01 0.239D+00 0.665D+00
 Coeff-En:   0.000D+00 0.000D+00 0.000D+00 0.000D+00 0.100D+01
 Coeff:     -0.895D-02 0.175D-01 0.873D-01 0.237D+00 0.667D+00
 Gap=     0.131 Goal=   None    Shift=    0.000
 RMSDP=1.46D-03 MaxDP=5.88D-02 DE=-1.77D-03 OVMax= 2.16D-03

 Cycle   6  Pass 0  IDiag  1:
 RMSU=  2.11D-04    CP:  1.00D+00  1.07D+00  8.29D-01  7.57D-01  2.33D+00
 E= -539.720369591292     Delta-E=       -0.000080114480 Rises=F Damp=F
 DIIS: error= 1.61D-04 at cycle   6 NSaved=   6.
 NSaved= 6 IEnMin= 6 EnMin= -539.720369591292     IErMin= 6 ErrMin= 1.61D-04
 ErrMax= 1.61D-04  0.00D+00 EMaxC= 1.00D-01 BMatC= 1.58D-06 BMatP= 9.85D-05
 IDIUse=3 WtCom= 9.98D-01 WtEn= 1.61D-03
 Coeff-Com: -0.262D-02 0.433D-02 0.264D-01 0.760D-01 0.235D+00 0.661D+00
 Coeff-En:   0.000D+00 0.000D+00 0.000D+00 0.000D+00 0.000D+00 0.100D+01
 Coeff:     -0.262D-02 0.433D-02 0.264D-01 0.759D-01 0.235D+00 0.661D+00
 Gap=     0.131 Goal=   None    Shift=    0.000
 RMSDP=2.51D-03 MaxDP=1.04D-01 DE=-8.01D-05 OVMax= 8.91D-04

 Cycle   7  Pass 0  IDiag  1:
 RMSU=  4.34D-04    CP:  1.03D+00  1.44D+00  6.56D-01  6.38D-02  3.00D+00
                    CP:  3.00D+00
 E= -539.720347600790     Delta-E=        0.000021990502 Rises=F Damp=F
 DIIS: error= 3.14D-04 at cycle   7 NSaved=   7.
 NSaved= 7 IEnMin= 6 EnMin= -539.720369591292     IErMin= 6 ErrMin= 1.61D-04
 ErrMax= 3.14D-04  0.00D+00 EMaxC= 1.00D-01 BMatC= 4.25D-06 BMatP= 1.58D-06
 IDIUse=3 WtCom= 9.98D-01 WtEn= 1.61D-03
 Rare condition: small coef for last iteration:  0.000D+00
 Coeff-Com: -0.236D-02 0.349D-02 0.241D-01 0.718D-01 0.234D+00 0.943D+00
 Coeff-Com: -0.274D+00
 Coeff-En:   0.000D+00 0.000D+00 0.000D+00 0.000D+00 0.000D+00 0.000D+00
 Coeff-En:   0.100D+01
 Coeff:     -0.236D-02 0.349D-02 0.241D-01 0.718D-01 0.234D+00 0.943D+00
 Coeff:     -0.274D+00
 Gap=     0.131 Goal=   None    Shift=    0.000
 RMSDP=8.05D-04 MaxDP=3.39D-02 DE= 2.20D-05 OVMax= 2.86D-04

 Cycle   8  Pass 0  IDiag  1:
 RMSU=  1.45D-04    CP:  1.02D+00  1.33D+00  7.03D-01  4.43D-01  3.00D+00
                    CP:  2.33D+00  5.13D-01
 E= -539.720358872688     Delta-E=       -0.000011271898 Rises=F Damp=F
 DIIS: error= 3.03D-04 at cycle   8 NSaved=   8.
 NSaved= 8 IEnMin= 6 EnMin= -539.720369591292     IErMin= 6 ErrMin= 1.61D-04
 ErrMax= 3.03D-04  0.00D+00 EMaxC= 1.00D-01 BMatC= 3.86D-06 BMatP= 1.58D-06
 IDIUse=3 WtCom= 9.98D-01 WtEn= 1.61D-03
 Coeff-Com: -0.182D-02 0.243D-02 0.188D-01 0.574D-01 0.194D+00 0.994D+00
 Coeff-Com: -0.107D+01 0.806D+00
 Coeff-En:   0.000D+00 0.000D+00 0.000D+00 0.000D+00 0.000D+00 0.000D+00
 Coeff-En:   0.000D+00 0.100D+01
 Coeff:     -0.182D-02 0.242D-02 0.188D-01 0.573D-01 0.193D+00 0.993D+00
 Coeff:     -0.107D+01 0.806D+00
 Gap=     0.131 Goal=   None    Shift=    0.000
 RMSDP=4.79D-04 MaxDP=1.91D-02 DE=-1.13D-05 OVMax= 3.53D-04

 Cycle   9  Pass 0  IDiag  1:
 RMSU=  1.56D-04    CP:  1.01D+00  1.28D+00  7.04D-01  7.16D-01  3.00D+00
                    CP:  1.19D+00  3.14D-01  2.17D+00
 E= -539.720369809004     Delta-E=       -0.000010936316 Rises=F Damp=F
 DIIS: error= 3.16D-04 at cycle   9 NSaved=   9.
 NSaved= 9 IEnMin= 9 EnMin= -539.720369809004     IErMin= 6 ErrMin= 1.61D-04
 ErrMax= 3.16D-04  0.00D+00 EMaxC= 1.00D-01 BMatC= 3.08D-06 BMatP= 1.58D-06
 IDIUse=3 WtCom= 9.98D-01 WtEn= 1.61D-03
 Coeff-Com: -0.181D-02 0.248D-02 0.187D-01 0.565D-01 0.190D+00 0.959D+00
 Coeff-Com: -0.114D+01 0.764D+00 0.149D+00
 Coeff-En:   0.000D+00 0.000D+00 0.000D+00 0.000D+00 0.000D+00 0.000D+00
 Coeff-En:   0.000D+00 0.000D+00 0.100D+01
 Coeff:     -0.180D-02 0.248D-02 0.186D-01 0.564D-01 0.189D+00 0.958D+00
 Coeff:     -0.114D+01 0.763D+00 0.151D+00
 Gap=     0.131 Goal=   None    Shift=    0.000
 RMSDP=1.46D-04 MaxDP=6.54D-03 DE=-1.09D-05 OVMax= 9.35D-05

 Cycle  10  Pass 0  IDiag  1:
 RMSU=  2.36D-05    CP:  1.01D+00  1.26D+00  7.06D-01  7.90D-01  3.00D+00
                    CP:  9.01D-01  2.18D-01  2.32D+00  1.27D+00
 E= -539.720373983444     Delta-E=       -0.000004174440 Rises=F Damp=F
 DIIS: error= 3.02D-04 at cycle  10 NSaved=  10.
 NSaved=10 IEnMin=10 EnMin= -539.720373983444     IErMin= 6 ErrMin= 1.61D-04
 ErrMax= 3.02D-04  0.00D+00 EMaxC= 1.00D-01 BMatC= 3.13D-06 BMatP= 1.58D-06
 IDIUse=3 WtCom= 9.98D-01 WtEn= 1.61D-03
 Coeff-Com: -0.180D-02 0.242D-02 0.186D-01 0.568D-01 0.192D+00 0.100D+01
 Coeff-Com: -0.119D+01 0.955D+00 0.145D+01-0.149D+01
 Coeff-En:   0.000D+00 0.000D+00 0.000D+00 0.000D+00 0.000D+00 0.000D+00
 Coeff-En:   0.000D+00 0.000D+00 0.000D+00 0.100D+01
 Coeff:     -0.180D-02 0.242D-02 0.186D-01 0.567D-01 0.192D+00 0.100D+01
 Coeff:     -0.119D+01 0.954D+00 0.145D+01-0.148D+01
 Gap=     0.131 Goal=   None    Shift=    0.000
 RMSDP=6.21D-04 MaxDP=2.16D-02 DE=-4.17D-06 OVMax= 3.06D-04

 Cycle  11  Pass 0  IDiag  1:
 RMSU=  9.82D-05    CP:  1.01D+00  1.17D+00  7.73D-01  6.79D-01  3.00D+00
                    CP:  1.06D+00  1.59D-01  1.83D+00  8.66D-01 -3.00D+00
 E= -539.720367445440     Delta-E=        0.000006538005 Rises=F Damp=F
 DIIS: error= 2.45D-04 at cycle  11 NSaved=  11.
 NSaved=11 IEnMin=10 EnMin= -539.720373983444     IErMin= 6 ErrMin= 1.61D-04
 ErrMax= 2.45D-04  0.00D+00 EMaxC= 1.00D-01 BMatC= 1.55D-06 BMatP= 1.58D-06
 IDIUse=3 WtCom= 9.98D-01 WtEn= 1.61D-03
 Rare condition: small coef for last iteration:  0.000D+00
 Coeff-Com: -0.957D-03 0.106D-02 0.101D-01 0.318D-01 0.110D+00 0.603D+00
 Coeff-Com: -0.579D-01-0.725D-01-0.236D+01 0.116D+01 0.157D+01
 Coeff-En:   0.000D+00 0.000D+00 0.000D+00 0.000D+00 0.000D+00 0.000D+00
 Coeff-En:   0.000D+00 0.000D+00 0.000D+00 0.000D+00 0.100D+01
 Coeff:     -0.957D-03 0.106D-02 0.101D-01 0.318D-01 0.110D+00 0.603D+00
 Coeff:     -0.579D-01-0.725D-01-0.236D+01 0.116D+01 0.157D+01
 Gap=     0.131 Goal=   None    Shift=    0.000
 RMSDP=1.49D-03 MaxDP=6.54D-02 DE= 6.54D-06 OVMax= 6.08D-04

 Cycle  12  Pass 0  IDiag  1:
 RMSU=  1.01D-04    CP:  9.94D-01  9.48D-01  8.82D-01  7.17D-01  2.22D+00
                    CP:  3.04D-01 -1.60D-01  1.18D+00  1.00D+00 -1.38D+00
                    CP:  1.49D+00
 E= -539.720371569878     Delta-E=       -0.000004124438 Rises=F Damp=F
 DIIS: error= 6.49D-05 at cycle  12 NSaved=  12.
 NSaved=12 IEnMin=10 EnMin= -539.720373983444     IErMin=12 ErrMin= 6.49D-05
 ErrMax= 6.49D-05  0.00D+00 EMaxC= 1.00D-01 BMatC= 2.45D-07 BMatP= 1.55D-06
 IDIUse=1 WtCom= 1.00D+00 WtEn= 0.00D+00
 Coeff-Com: -0.189D-03 0.287D-04 0.206D-02 0.787D-02 0.302D-01 0.210D+00
 Coeff-Com:  0.235D+00 0.195D-01-0.636D+00-0.368D+00 0.633D+00 0.868D+00
 Coeff:     -0.189D-03 0.287D-04 0.206D-02 0.787D-02 0.302D-01 0.210D+00
 Coeff:      0.235D+00 0.195D-01-0.636D+00-0.368D+00 0.633D+00 0.868D+00
 Gap=     0.131 Goal=   None    Shift=    0.000
 RMSDP=3.02D-04 MaxDP=6.94D-03 DE=-4.12D-06 OVMax= 3.19D-04

 Cycle  13  Pass 0  IDiag  1:
 RMSU=  7.85D-05    CP:  9.96D-01  9.26D-01  9.04D-01  5.00D-01  1.92D+00
                    CP:  9.89D-01  4.33D-03  4.13D-01  3.74D-01 -1.79D+00
                    CP:  1.95D+00  1.15D+00
 E= -539.720365308947     Delta-E=        0.000006260930 Rises=F Damp=F
 DIIS: error= 5.27D-05 at cycle  13 NSaved=  13.
 NSaved=13 IEnMin=10 EnMin= -539.720373983444     IErMin=13 ErrMin= 5.27D-05
 ErrMax= 5.27D-05  0.00D+00 EMaxC= 1.00D-01 BMatC= 1.48D-07 BMatP= 2.45D-07
 IDIUse=1 WtCom= 1.00D+00 WtEn= 0.00D+00
 Coeff-Com: -0.154D-03 0.535D-04 0.164D-02 0.607D-02 0.229D-01 0.155D+00
 Coeff-Com:  0.947D-01 0.702D-01 0.335D-01-0.744D+00 0.437D+00 0.488D+00
 Coeff-Com:  0.434D+00
 Coeff:     -0.154D-03 0.535D-04 0.164D-02 0.607D-02 0.229D-01 0.155D+00
 Coeff:      0.947D-01 0.702D-01 0.335D-01-0.744D+00 0.437D+00 0.488D+00
 Coeff:      0.434D+00
 Gap=     0.131 Goal=   None    Shift=    0.000
 RMSDP=8.33D-05 MaxDP=2.16D-03 DE= 6.26D-06 OVMax= 8.22D-05

 Cycle  14  Pass 0  IDiag  1:
 RMSU=  2.46D-05    CP:  9.97D-01  9.24D-01  9.04D-01  4.47D-01  1.85D+00
                    CP:  1.16D+00  5.61D-02  2.77D-01  2.41D-01 -2.23D+00
                    CP:  2.20D+00  1.13D+00  1.57D+00
 E= -539.720365299833     Delta-E=        0.000000009114 Rises=F Damp=F
 DIIS: error= 4.96D-05 at cycle  14 NSaved=  14.
 NSaved=14 IEnMin=10 EnMin= -539.720373983444     IErMin=14 ErrMin= 4.96D-05
 ErrMax= 4.96D-05  0.00D+00 EMaxC= 1.00D-01 BMatC= 1.16D-07 BMatP= 1.48D-07
 IDIUse=1 WtCom= 1.00D+00 WtEn= 0.00D+00
 Coeff-Com: -0.143D-03 0.434D-04 0.152D-02 0.567D-02 0.215D-01 0.150D+00
 Coeff-Com:  0.660D-01 0.788D-01 0.987D-01-0.758D+00 0.410D+00 0.430D+00
 Coeff-Com:  0.348D+00 0.147D+00
 Coeff:     -0.143D-03 0.434D-04 0.152D-02 0.567D-02 0.215D-01 0.150D+00
 Coeff:      0.660D-01 0.788D-01 0.987D-01-0.758D+00 0.410D+00 0.430D+00
 Coeff:      0.348D+00 0.147D+00
 Gap=     0.131 Goal=   None    Shift=    0.000
 RMSDP=2.17D-05 MaxDP=9.26D-04 DE= 9.11D-09 OVMax= 1.62D-05

 Cycle  15  Pass 0  IDiag  1:
 RMSU=  3.67D-06    CP:  9.97D-01  9.24D-01  9.03D-01  4.38D-01  1.84D+00
                    CP:  1.18D+00  6.48D-02  2.75D-01  2.36D-01 -2.34D+00
                    CP:  2.28D+00  1.13D+00  1.76D+00  1.41D+00
 E= -539.720363676464     Delta-E=        0.000001623370 Rises=F Damp=F
 DIIS: error= 4.95D-05 at cycle  15 NSaved=  15.
 NSaved=15 IEnMin=10 EnMin= -539.720373983444     IErMin=15 ErrMin= 4.95D-05
 ErrMax= 4.95D-05  0.00D+00 EMaxC= 1.00D-01 BMatC= 1.28D-07 BMatP= 1.16D-07
 IDIUse=1 WtCom= 1.00D+00 WtEn= 0.00D+00
 Coeff-Com: -0.134D-03 0.433D-04 0.141D-02 0.526D-02 0.198D-01 0.128D+00
 Coeff-Com:  0.136D+00-0.545D-02-0.151D+00-0.536D+00 0.507D+00 0.290D+00
 Coeff-Com:  0.290D+00 0.173D+01-0.142D+01
 Coeff:     -0.134D-03 0.433D-04 0.141D-02 0.526D-02 0.198D-01 0.128D+00
 Coeff:      0.136D+00-0.545D-02-0.151D+00-0.536D+00 0.507D+00 0.290D+00
 Coeff:      0.290D+00 0.173D+01-0.142D+01
 Gap=     0.131 Goal=   None    Shift=    0.000
 RMSDP=4.90D-05 MaxDP=2.58D-03 DE= 1.62D-06 OVMax= 2.71D-05

 Cycle  16  Pass 0  IDiag  1:
 RMSU=  1.49D-05    CP:  9.97D-01  9.18D-01  9.07D-01  4.29D-01  1.81D+00
                    CP:  1.21D+00  6.35D-02  2.06D-01  1.96D-01 -2.12D+00
                    CP:  2.21D+00  1.14D+00  1.54D+00  9.04D-01 -1.57D+00
 E= -539.720367094380     Delta-E=       -0.000003417916 Rises=F Damp=F
 DIIS: error= 5.23D-05 at cycle  16 NSaved=  16.
 NSaved=16 IEnMin=10 EnMin= -539.720373983444     IErMin=15 ErrMin= 4.95D-05
 ErrMax= 5.23D-05  0.00D+00 EMaxC= 1.00D-01 BMatC= 1.20D-07 BMatP= 1.16D-07
 IDIUse=1 WtCom= 1.00D+00 WtEn= 0.00D+00
 Coeff-Com: -0.135D-03 0.435D-04 0.142D-02 0.527D-02 0.198D-01 0.128D+00
 Coeff-Com:  0.137D+00-0.622D-02-0.156D+00-0.532D+00 0.508D+00 0.290D+00
 Coeff-Com:  0.294D+00 0.176D+01-0.143D+01-0.202D-01
 Coeff:     -0.135D-03 0.435D-04 0.142D-02 0.527D-02 0.198D-01 0.128D+00
 Coeff:      0.137D+00-0.622D-02-0.156D+00-0.532D+00 0.508D+00 0.290D+00
 Coeff:      0.294D+00 0.176D+01-0.143D+01-0.202D-01
 Gap=     0.131 Goal=   None    Shift=    0.000
 RMSDP=1.13D-06 MaxDP=4.07D-05 DE=-3.42D-06 OVMax= 9.23D-07

 Initial convergence to 1.0D-05 achieved.  Increase integral accuracy.
 Cycle  17  Pass 1  IDiag  1:
 E= -539.720275152884     Delta-E=        0.000091941496 Rises=F Damp=F
 DIIS: error= 1.99D-03 at cycle   1 NSaved=   1.
 NSaved= 1 IEnMin= 1 EnMin= -539.720275152884     IErMin= 1 ErrMin= 1.99D-03
 ErrMax= 1.99D-03  0.00D+00 EMaxC= 1.00D-01 BMatC= 5.80D-05 BMatP= 5.80D-05
 IDIUse=3 WtCom= 9.80D-01 WtEn= 1.99D-02
 Coeff-Com:  0.100D+01
 Coeff-En:   0.100D+01
 Coeff:      0.100D+01
 Gap=     0.131 Goal=   None    Shift=    0.000
 RMSDP=1.13D-06 MaxDP=4.07D-05 DE= 9.19D-05 OVMax= 4.49D-03

 Cycle  18  Pass 1  IDiag  1:
 RMSU=  4.50D-03    CP:  5.53D-01
 E= -539.720334056106     Delta-E=       -0.000058903222 Rises=F Damp=F
 DIIS: error= 3.68D-05 at cycle   2 NSaved=   2.
 NSaved= 2 IEnMin= 2 EnMin= -539.720334056106     IErMin= 2 ErrMin= 3.68D-05
 ErrMax= 3.68D-05  0.00D+00 EMaxC= 1.00D-01 BMatC= 1.53D-08 BMatP= 5.80D-05
 IDIUse=1 WtCom= 1.00D+00 WtEn= 0.00D+00
 Coeff-Com: -0.112D-01 0.101D+01
 Coeff:     -0.112D-01 0.101D+01
 Gap=     0.131 Goal=   None    Shift=    0.000
 RMSDP=6.79D-05 MaxDP=1.70D-03 DE=-5.89D-05 OVMax= 1.19D-04

 Cycle  19  Pass 1  IDiag  1:
 RMSU=  5.17D-05    CP:  5.50D-01  1.01D+00
 E= -539.720334075865     Delta-E=       -0.000000019759 Rises=F Damp=F
 DIIS: error= 8.44D-06 at cycle   3 NSaved=   3.
 NSaved= 3 IEnMin= 3 EnMin= -539.720334075865     IErMin= 3 ErrMin= 8.44D-06
 ErrMax= 8.44D-06  0.00D+00 EMaxC= 1.00D-01 BMatC= 7.88D-09 BMatP= 1.53D-08
 IDIUse=1 WtCom= 1.00D+00 WtEn= 0.00D+00
 Coeff-Com: -0.565D-02 0.500D+00 0.505D+00
 Coeff:     -0.565D-02 0.500D+00 0.505D+00
 Gap=     0.131 Goal=   None    Shift=    0.000
 RMSDP=6.68D-07 MaxDP=2.10D-05 DE=-1.98D-08 OVMax= 9.84D-05

 Cycle  20  Pass 1  IDiag  1:
 RMSU=  3.38D-07    CP:  5.50D-01  1.01D+00  1.01D+00
 E= -539.720334080484     Delta-E=       -0.000000004619 Rises=F Damp=F
 DIIS: error= 6.22D-06 at cycle   4 NSaved=   4.
 NSaved= 4 IEnMin= 4 EnMin= -539.720334080484     IErMin= 4 ErrMin= 6.22D-06
 ErrMax= 6.22D-06  0.00D+00 EMaxC= 1.00D-01 BMatC= 3.97D-09 BMatP= 7.88D-09
 IDIUse=1 WtCom= 1.00D+00 WtEn= 0.00D+00
 Coeff-Com: -0.117D-03 0.443D-02 0.413D+00 0.582D+00
 Coeff:     -0.117D-03 0.443D-02 0.413D+00 0.582D+00
 Gap=     0.131 Goal=   None    Shift=    0.000
 RMSDP=6.05D-07 MaxDP=1.91D-05 DE=-4.62D-09 OVMax= 4.41D-05

 Cycle  21  Pass 1  IDiag  1:
 RMSU=  2.28D-07    CP:  5.50D-01  1.01D+00  1.02D+00  1.08D+00
 E= -539.720334085148     Delta-E=       -0.000000004663 Rises=F Damp=F
 DIIS: error= 5.23D-07 at cycle   5 NSaved=   5.
 NSaved= 5 IEnMin= 5 EnMin= -539.720334085148     IErMin= 5 ErrMin= 5.23D-07
 ErrMax= 5.23D-07  0.00D+00 EMaxC= 1.00D-01 BMatC= 9.86D-11 BMatP= 3.97D-09
 IDIUse=1 WtCom= 1.00D+00 WtEn= 0.00D+00
 Coeff-Com:  0.500D-04-0.801D-02 0.231D+00 0.341D+00 0.435D+00
 Coeff:      0.500D-04-0.801D-02 0.231D+00 0.341D+00 0.435D+00
 Gap=     0.131 Goal=   None    Shift=    0.000
 RMSDP=3.00D-08 MaxDP=8.66D-07 DE=-4.66D-09 OVMax= 3.17D-06

 Cycle  22  Pass 1  IDiag  1:
 RMSU=  1.66D-08    CP:  5.50D-01  1.01D+00  1.02D+00  1.12D+00  1.02D+00
 E= -539.720334085251     Delta-E=       -0.000000000103 Rises=F Damp=F
 DIIS: error= 8.46D-08 at cycle   6 NSaved=   6.
 NSaved= 6 IEnMin= 6 EnMin= -539.720334085251     IErMin= 6 ErrMin= 8.46D-08
 ErrMax= 8.46D-08  0.00D+00 EMaxC= 1.00D-01 BMatC= 2.37D-12 BMatP= 9.86D-11
 IDIUse=1 WtCom= 1.00D+00 WtEn= 0.00D+00
 Coeff-Com:  0.269D-04-0.384D-02 0.894D-01 0.133D+00 0.206D+00 0.576D+00
 Coeff:      0.269D-04-0.384D-02 0.894D-01 0.133D+00 0.206D+00 0.576D+00
 Gap=     0.131 Goal=   None    Shift=    0.000
 RMSDP=7.28D-09 MaxDP=2.58D-07 DE=-1.03D-10 OVMax= 6.19D-07

 SCF Done:  E(RB3LYP) =  -539.720334085     A.U. after   22 cycles
            NFock= 22  Conv=0.73D-08     -V/T= 2.0058
 KE= 5.366034703504D+02 PE=-2.784154548922D+03 EE= 9.413721842503D+02
 Leave Link  502 at Wed Apr  3 15:41:44 2024, MaxMem= 33554432000 cpu:            2818.5 elap:              88.7
 (Enter /apps/gaussian/g16-c01-avx2/g16/l601.exe)
 Copying SCF densities to generalized density rwf, IOpCl= 0 IROHF=0.

 **********************************************************************

            Population analysis using the SCF Density.

 **********************************************************************

 Orbital symmetries:
       Occupied  (A) (A) (A) (A) (A) (A) (A) (A) (A) (A) (A) (A)
                 (A) (A) (A) (A) (A) (A) (A) (A) (A) (A) (A) (A)
                 (A) (A) (A) (A) (A) (A) (A) (A) (A) (A) (A) (A)
                 (A) (A) (A) (A) (A) (A) (A) (A) (A) (A) (A)
       Virtual   (A) (A) (A) (A) (A) (A) (A) (A) (A) (A) (A) (A)
                 (A) (A) (A) (A) (A) (A) (A) (A) (A) (A) (A) (A)
                 (A) (A) (A) (A) (A) (A) (A) (A) (A) (A) (A) (A)
                 (A) (A) (A) (A) (A) (A) (A) (A) (A) (A) (A) (A)
                 (A) (A) (A) (A) (A) (A) (A) (A) (A) (A) (A) (A)
                 (A) (A) (A) (A) (A) (A) (A) (A) (A) (A) (A) (A)
                 (A) (A) (A) (A) (A) (A) (A) (A) (A) (A) (A) (A)
                 (A) (A) (A) (A) (A) (A) (A) (A) (A) (A) (A) (A)
                 (A) (A) (A) (A) (A) (A) (A) (A) (A) (A) (A) (A)
                 (A) (A) (A) (A) (A) (A) (A) (A) (A) (A) (A) (A)
                 (A) (A) (A) (A) (A) (A) (A) (A) (A) (A) (A) (A)
                 (A) (A) (A) (A) (A) (A) (A) (A) (A) (A) (A) (A)
                 (A) (A) (A) (A) (A) (A) (A) (A) (A) (A) (A) (A)
                 (A) (A) (A) (A) (A) (A) (A) (A) (A) (A) (A) (A)
                 (A) (A) (A) (A) (A) (A) (A) (A) (A) (A) (A) (A)
                 (A) (A) (A) (A) (A) (A) (A) (A) (A) (A) (A) (A)
                 (A) (A) (A) (A) (A) (A) (A) (A) (A) (A) (A) (A)
                 (A) (A) (A) (A) (A) (A) (A) (A) (A) (A) (A) (A)
                 (A) (A) (A) (A) (A) (A) (A) (A) (A) (A) (A) (A)
                 (A) (A) (A) (A) (A) (A) (A) (A) (A) (A) (A) (A)
                 (A) (A) (A) (A) (A) (A) (A) (A) (A) (A) (A) (A)
                 (A) (A) (A) (A) (A) (A) (A) (A) (A) (A) (A) (A)
                 (A) (A) (A) (A) (A) (A) (A) (A) (A) (A) (A) (A)
                 (A) (A) (A) (A) (A) (A) (A) (A) (A) (A) (A) (A)
                 (A) (A) (A) (A) (A) (A) (A) (A) (A) (A) (A) (A)
                 (A) (A) (A) (A) (A) (A) (A) (A) (A) (A) (A) (A)
                 (A) (A) (A) (A) (A) (A) (A) (A) (A) (A) (A) (A)
                 (A) (A) (A) (A) (A) (A) (A) (A) (A) (A) (A) (A)
                 (A) (A) (A) (A) (A) (A) (A) (A) (A) (A) (A) (A)
                 (A) (A) (A) (A) (A) (A) (A) (A) (A) (A) (A) (A)
                 (A) (A) (A) (A) (A) (A) (A) (A) (A) (A) (A) (A)
                 (A) (A) (A) (A) (A) (A) (A) (A) (A) (A) (A) (A)
                 (A) (A) (A) (A) (A) (A) (A) (A) (A) (A) (A) (A)
                 (A) (A) (A) (A) (A) (A) (A) (A) (A) (A) (A) (A)
                 (A) (A) (A) (A) (A) (A) (A) (A) (A) (A) (A) (A)
                 (A) (A) (A) (A) (A) (A) (A) (A) (A) (A) (A) (A)
                 (A) (A) (A) (A) (A) (A) (A) (A) (A) (A) (A) (A)
                 (A) (A) (A)
 The electronic state is 1-A.
 Alpha  occ. eigenvalues --  -10.18952 -10.18951 -10.18913 -10.18910 -10.18253
 Alpha  occ. eigenvalues --  -10.18251 -10.18229 -10.18227 -10.18224 -10.18224
 Alpha  occ. eigenvalues --  -10.18145 -10.18145 -10.18107 -10.18107  -0.88826
 Alpha  occ. eigenvalues --   -0.85587  -0.80679  -0.78794  -0.75525  -0.74400
 Alpha  occ. eigenvalues --   -0.70697  -0.64876  -0.61969  -0.60578  -0.59538
 Alpha  occ. eigenvalues --   -0.54094  -0.52660  -0.50774  -0.46888  -0.46578
 Alpha  occ. eigenvalues --   -0.45475  -0.45245  -0.42807  -0.41773  -0.41284
 Alpha  occ. eigenvalues --   -0.40911  -0.39324  -0.38274  -0.37045  -0.35155
 Alpha  occ. eigenvalues --   -0.34043  -0.33427  -0.31284  -0.30634  -0.26522
 Alpha  occ. eigenvalues --   -0.25001  -0.20414
 Alpha virt. eigenvalues --   -0.07273  -0.02470  -0.00902   0.01543   0.04667
 Alpha virt. eigenvalues --    0.04924   0.05070   0.05256   0.07543   0.07778
 Alpha virt. eigenvalues --    0.09612   0.09653   0.10827   0.11817   0.12172
 Alpha virt. eigenvalues --    0.13636   0.13824   0.14648   0.15329   0.17328
 Alpha virt. eigenvalues --    0.17689   0.18577   0.18917   0.18991   0.21127
 Alpha virt. eigenvalues --    0.21587   0.21726   0.22459   0.24335   0.24600
 Alpha virt. eigenvalues --    0.25104   0.25754   0.26385   0.26474   0.26786
 Alpha virt. eigenvalues --    0.27022   0.27936   0.28936   0.29177   0.29693
 Alpha virt. eigenvalues --    0.30497   0.30625   0.30981   0.32522   0.33412
 Alpha virt. eigenvalues --    0.34194   0.34878   0.35545   0.35750   0.36278
 Alpha virt. eigenvalues --    0.36586   0.37097   0.37361   0.39376   0.39455
 Alpha virt. eigenvalues --    0.39885   0.40849   0.41233   0.42252   0.42254
 Alpha virt. eigenvalues --    0.43399   0.43458   0.45133   0.46442   0.47045
 Alpha virt. eigenvalues --    0.47567   0.47907   0.48706   0.49322   0.49335
 Alpha virt. eigenvalues --    0.50146   0.50448   0.51066   0.51577   0.53076
 Alpha virt. eigenvalues --    0.53190   0.53807   0.56975   0.60056   0.60302
 Alpha virt. eigenvalues --    0.62025   0.62450   0.63596   0.63658   0.64752
 Alpha virt. eigenvalues --    0.65507   0.67080   0.67289   0.69538   0.69881
 Alpha virt. eigenvalues --    0.70865   0.71418   0.71442   0.72485   0.73228
 Alpha virt. eigenvalues --    0.73907   0.73976   0.75876   0.76171   0.77066
 Alpha virt. eigenvalues --    0.77155   0.77212   0.78188   0.80116   0.81815
 Alpha virt. eigenvalues --    0.82971   0.83632   0.83943   0.84356   0.87534
 Alpha virt. eigenvalues --    0.88068   0.88282   0.89081   0.89372   0.90346
 Alpha virt. eigenvalues --    0.91261   0.93389   0.94656   0.95524   0.98735
 Alpha virt. eigenvalues --    0.98767   0.99211   0.99372   0.99498   1.01174
 Alpha virt. eigenvalues --    1.06727   1.08706   1.09112   1.09731   1.12133
 Alpha virt. eigenvalues --    1.13695   1.13824   1.14290   1.17946   1.17999
 Alpha virt. eigenvalues --    1.19651   1.20157   1.20657   1.21963   1.22901
 Alpha virt. eigenvalues --    1.23589   1.23988   1.24287   1.25767   1.26257
 Alpha virt. eigenvalues --    1.28333   1.28503   1.28609   1.28632   1.33199
 Alpha virt. eigenvalues --    1.36471   1.37096   1.37202   1.37461   1.37775
 Alpha virt. eigenvalues --    1.42032   1.42727   1.42962   1.44408   1.44515
 Alpha virt. eigenvalues --    1.47494   1.47988   1.48183   1.48419   1.49061
 Alpha virt. eigenvalues --    1.51243   1.51525   1.53087   1.53090   1.54409
 Alpha virt. eigenvalues --    1.56239   1.57871   1.58208   1.59895   1.60519
 Alpha virt. eigenvalues --    1.61648   1.62834   1.65415   1.65534   1.66537
 Alpha virt. eigenvalues --    1.66850   1.67335   1.67458   1.67941   1.69289
 Alpha virt. eigenvalues --    1.69844   1.71629   1.74127   1.74137   1.74364
 Alpha virt. eigenvalues --    1.79906   1.82367   1.83057   1.84646   1.86483
 Alpha virt. eigenvalues --    1.87285   1.88456   1.90839   1.91769   1.93622
 Alpha virt. eigenvalues --    1.96344   1.98782   1.98808   1.99015   1.99631
 Alpha virt. eigenvalues --    2.03588   2.03651   2.03944   2.09273   2.09972
 Alpha virt. eigenvalues --    2.10692   2.13330   2.15613   2.15723   2.17284
 Alpha virt. eigenvalues --    2.18303   2.18814   2.19253   2.21280   2.21720
 Alpha virt. eigenvalues --    2.24207   2.26070   2.28704   2.29610   2.29862
 Alpha virt. eigenvalues --    2.30018   2.33678   2.35227   2.40134   2.41972
 Alpha virt. eigenvalues --    2.42605   2.44691   2.45075   2.47879   2.49182
 Alpha virt. eigenvalues --    2.49666   2.50769   2.51484   2.53952   2.56204
 Alpha virt. eigenvalues --    2.56575   2.59051   2.59089   2.59706   2.62886
 Alpha virt. eigenvalues --    2.63996   2.64679   2.65332   2.66459   2.66772
 Alpha virt. eigenvalues --    2.68423   2.69966   2.70086   2.70862   2.72938
 Alpha virt. eigenvalues --    2.73676   2.74094   2.74573   2.76946   2.77599
 Alpha virt. eigenvalues --    2.78089   2.78303   2.78850   2.79598   2.80637
 Alpha virt. eigenvalues --    2.81375   2.83118   2.83267   2.85026   2.85850
 Alpha virt. eigenvalues --    2.86289   2.86680   2.87177   2.87938   2.90723
 Alpha virt. eigenvalues --    2.91072   2.92093   2.94167   2.94466   2.94614
 Alpha virt. eigenvalues --    2.95934   2.96718   2.96938   2.98207   2.98508
 Alpha virt. eigenvalues --    2.99422   3.00584   3.04393   3.04450   3.05530
 Alpha virt. eigenvalues --    3.05747   3.06550   3.06811   3.07245   3.10453
 Alpha virt. eigenvalues --    3.12190   3.12233   3.14269   3.14683   3.15469
 Alpha virt. eigenvalues --    3.17436   3.18058   3.18168   3.18564   3.19836
 Alpha virt. eigenvalues --    3.19972   3.20839   3.23934   3.24905   3.25546
 Alpha virt. eigenvalues --    3.26344   3.27266   3.28032   3.29429   3.29701
 Alpha virt. eigenvalues --    3.31300   3.31363   3.31758   3.32030   3.32617
 Alpha virt. eigenvalues --    3.34318   3.34578   3.35691   3.40936   3.41734
 Alpha virt. eigenvalues --    3.41946   3.42129   3.43388   3.43477   3.44588
 Alpha virt. eigenvalues --    3.45284   3.46953   3.47658   3.48209   3.50147
 Alpha virt. eigenvalues --    3.51011   3.51929   3.51996   3.53037   3.53228
 Alpha virt. eigenvalues --    3.55848   3.55863   3.56478   3.57250   3.59270
 Alpha virt. eigenvalues --    3.61243   3.63927   3.64357   3.64895   3.66525
 Alpha virt. eigenvalues --    3.71302   3.72085   3.73266   3.77548   3.83000
 Alpha virt. eigenvalues --    3.83972   3.84502   3.85640   3.86980   3.87964
 Alpha virt. eigenvalues --    3.90623   3.90695   3.91093   3.91354   3.92234
 Alpha virt. eigenvalues --    3.95853   4.00398   4.01995   4.03356   4.03977
 Alpha virt. eigenvalues --    4.04482   4.04994   4.07176   4.14533   4.14727
 Alpha virt. eigenvalues --    4.14761   4.16177   4.17645   4.17698   4.18174
 Alpha virt. eigenvalues --    4.18835   4.19673   4.20662   4.22634   4.24461
 Alpha virt. eigenvalues --    4.26779   4.28109   4.30474   4.32286   4.33721
 Alpha virt. eigenvalues --    4.36640   4.37457   4.40067   4.44179   4.45728
 Alpha virt. eigenvalues --    4.49586   4.49885   4.51299   4.57532   4.57892
 Alpha virt. eigenvalues --    4.59043   4.62781   4.65022   4.67371   4.72832
 Alpha virt. eigenvalues --    4.74219   4.78417   4.81655   4.82510   4.82889
 Alpha virt. eigenvalues --    4.83883   4.84103   4.87881   4.98206   4.99971
 Alpha virt. eigenvalues --    5.00890   5.08856   5.09056   5.09873   5.15050
 Alpha virt. eigenvalues --    5.17640   5.27722   5.28017   5.39394   5.39439
 Alpha virt. eigenvalues --    5.42814   5.44115   5.53956   5.66122   5.69086
 Alpha virt. eigenvalues --    5.70956   5.75279   6.07693  21.78957  22.44115
 Alpha virt. eigenvalues --   22.57193  22.57312  22.58484  22.64995  22.68671
 Alpha virt. eigenvalues --   22.82287  22.84686  22.85988  22.86067  23.15176
 Alpha virt. eigenvalues --   23.33060  23.71008
          Condensed to atoms (all electrons):
               1          2          3          4          5          6
     1  C    4.887820   0.551739  -0.031995  -0.040698  -0.017182   0.413471
     2  C    0.551739   5.034858   0.409538  -0.034501  -0.053993  -0.017141
     3  C   -0.031995   0.409538   4.875001   0.409072  -0.034484  -0.040732
     4  C   -0.040698  -0.034501   0.409072   4.875022   0.409545  -0.032005
     5  C   -0.017182  -0.053993  -0.034484   0.409545   5.034784   0.551735
     6  C    0.413471  -0.017141  -0.040732  -0.032005   0.551735   4.887855
     7  C    0.002145  -0.090532   0.434088  -0.044346   0.009795   0.000613
     8  C    0.000615   0.009801  -0.044362   0.434075  -0.090503   0.002139
     9  C    0.000452   0.003006  -0.045245  -0.005638   0.006801  -0.001583
    10  C   -0.001584   0.006809  -0.005631  -0.045256   0.003007   0.000453
    11  C    0.000004  -0.001700   0.006801   0.003008  -0.000043   0.000017
    12  H    0.000001  -0.000061   0.001160   0.000073  -0.000003   0.000000
    13  C    0.000002   0.000004  -0.001585   0.000454   0.000017  -0.000004
    14  C   -0.000004   0.000017   0.000454  -0.001586   0.000004   0.000002
    15  C    0.000017  -0.000043   0.003007   0.006803  -0.001700   0.000004
    16  H    0.000468  -0.004415  -0.058483   0.011678  -0.000484   0.000031
    17  H    0.423344  -0.049530   0.010617  -0.001243   0.009236  -0.052717
    18  H   -0.047289   0.427335  -0.066510   0.008595  -0.001708   0.009406
    19  H    0.009405  -0.001707   0.008596  -0.066530   0.427354  -0.047293
    20  H   -0.052754   0.009239  -0.001242   0.010611  -0.049517   0.423365
    21  H    0.000032  -0.000485   0.011677  -0.058467  -0.004412   0.000467
    22  H   -0.000000  -0.000000   0.000037  -0.000011   0.000000   0.000000
    23  H    0.000000   0.000000  -0.000011   0.000037  -0.000000  -0.000000
    24  H    0.000000  -0.000003   0.000073   0.001162  -0.000061   0.000001
               7          8          9         10         11         12
     1  C    0.002145   0.000615   0.000452  -0.001584   0.000004   0.000001
     2  C   -0.090532   0.009801   0.003006   0.006809  -0.001700  -0.000061
     3  C    0.434088  -0.044362  -0.045245  -0.005631   0.006801   0.001160
     4  C   -0.044346   0.434075  -0.005638  -0.045256   0.003008   0.000073
     5  C    0.009795  -0.090503   0.006801   0.003007  -0.000043  -0.000003
     6  C    0.000613   0.002139  -0.001583   0.000453   0.000017   0.000000
     7  C    5.247889  -0.051419  -0.044376   0.433977  -0.090536   0.000876
     8  C   -0.051419   5.247850   0.433981  -0.044371   0.009801  -0.000282
     9  C   -0.044376   0.433981   4.875054   0.409042  -0.034439   0.008597
    10  C    0.433977  -0.044371   0.409042   4.875085   0.409504  -0.066533
    11  C   -0.090536   0.009801  -0.034439   0.409504   5.034930   0.427371
    12  H    0.000876  -0.000282   0.008597  -0.066533   0.427371   0.569350
    13  C    0.002159   0.000607  -0.040791  -0.031900   0.551578  -0.047308
    14  C    0.000605   0.002151  -0.031931  -0.040765  -0.017081   0.009410
    15  C    0.009803  -0.090523   0.409523  -0.034432  -0.054053  -0.001711
    16  H    0.424251  -0.002564   0.011672  -0.058456  -0.004414   0.006952
    17  H   -0.000829   0.000133  -0.000011   0.000037  -0.000000   0.000000
    18  H    0.000880  -0.000282   0.000073   0.001159  -0.000061   0.000026
    19  H   -0.000282   0.000886   0.001159   0.000073  -0.000003   0.000000
    20  H    0.000134  -0.000829   0.000037  -0.000011   0.000000  -0.000000
    21  H   -0.002562   0.424217  -0.058443   0.011672  -0.000484   0.000028
    22  H   -0.000829   0.000134  -0.001244   0.010616  -0.049531  -0.008656
    23  H    0.000133  -0.000829   0.010615  -0.001244   0.009240  -0.000318
    24  H   -0.000281   0.000879  -0.066536   0.008593  -0.001710   0.000094
              13         14         15         16         17         18
     1  C    0.000002  -0.000004   0.000017   0.000468   0.423344  -0.047289
     2  C    0.000004   0.000017  -0.000043  -0.004415  -0.049530   0.427335
     3  C   -0.001585   0.000454   0.003007  -0.058483   0.010617  -0.066510
     4  C    0.000454  -0.001586   0.006803   0.011678  -0.001243   0.008595
     5  C    0.000017   0.000004  -0.001700  -0.000484   0.009236  -0.001708
     6  C   -0.000004   0.000002   0.000004   0.000031  -0.052717   0.009406
     7  C    0.002159   0.000605   0.009803   0.424251  -0.000829   0.000880
     8  C    0.000607   0.002151  -0.090523  -0.002564   0.000133  -0.000282
     9  C   -0.040791  -0.031931   0.409523   0.011672  -0.000011   0.000073
    10  C   -0.031900  -0.040765  -0.034432  -0.058456   0.000037   0.001159
    11  C    0.551578  -0.017081  -0.054053  -0.004414  -0.000000  -0.000061
    12  H   -0.047308   0.009410  -0.001711   0.006952   0.000000   0.000026
    13  C    4.887971   0.413400  -0.017094   0.000467  -0.000000   0.000001
    14  C    0.413400   4.887970   0.551576   0.000031   0.000000   0.000000
    15  C   -0.017094   0.551576   5.034910  -0.000484   0.000000  -0.000003
    16  H    0.000467   0.000031  -0.000484   0.572180  -0.000059   0.006959
    17  H   -0.000000   0.000000   0.000000  -0.000059   0.567698  -0.008656
    18  H    0.000001   0.000000  -0.000003   0.006959  -0.008656   0.569340
    19  H    0.000000   0.000001  -0.000061   0.000028  -0.000318   0.000094
    20  H    0.000000  -0.000000  -0.000000  -0.000004  -0.006231  -0.000319
    21  H    0.000031   0.000467  -0.004412   0.000099  -0.000004   0.000028
    22  H    0.423363  -0.052745   0.009242  -0.000059  -0.000000   0.000000
    23  H   -0.052738   0.423363  -0.049527  -0.000004   0.000000  -0.000000
    24  H    0.009408  -0.047301   0.427373   0.000028  -0.000000   0.000000
              19         20         21         22         23         24
     1  C    0.009405  -0.052754   0.000032  -0.000000   0.000000   0.000000
     2  C   -0.001707   0.009239  -0.000485  -0.000000   0.000000  -0.000003
     3  C    0.008596  -0.001242   0.011677   0.000037  -0.000011   0.000073
     4  C   -0.066530   0.010611  -0.058467  -0.000011   0.000037   0.001162
     5  C    0.427354  -0.049517  -0.004412   0.000000  -0.000000  -0.000061
     6  C   -0.047293   0.423365   0.000467   0.000000  -0.000000   0.000001
     7  C   -0.000282   0.000134  -0.002562  -0.000829   0.000133  -0.000281
     8  C    0.000886  -0.000829   0.424217   0.000134  -0.000829   0.000879
     9  C    0.001159   0.000037  -0.058443  -0.001244   0.010615  -0.066536
    10  C    0.000073  -0.000011   0.011672   0.010616  -0.001244   0.008593
    11  C   -0.000003   0.000000  -0.000484  -0.049531   0.009240  -0.001710
    12  H    0.000000  -0.000000   0.000028  -0.008656  -0.000318   0.000094
    13  C    0.000000   0.000000   0.000031   0.423363  -0.052738   0.009408
    14  C    0.000001  -0.000000   0.000467  -0.052745   0.423363  -0.047301
    15  C   -0.000061  -0.000000  -0.004412   0.009242  -0.049527   0.427373
    16  H    0.000028  -0.000004   0.000099  -0.000059  -0.000004   0.000028
    17  H   -0.000318  -0.006231  -0.000004  -0.000000   0.000000  -0.000000
    18  H    0.000094  -0.000319   0.000028   0.000000  -0.000000   0.000000
    19  H    0.569338  -0.008653   0.006961  -0.000000   0.000000   0.000026
    20  H   -0.008653   0.567708  -0.000059   0.000000  -0.000000   0.000000
    21  H    0.006961  -0.000059   0.572175  -0.000004  -0.000059   0.006955
    22  H   -0.000000   0.000000  -0.000004   0.567715  -0.006233  -0.000318
    23  H    0.000000  -0.000000  -0.000059  -0.006233   0.567695  -0.008651
    24  H    0.000026   0.000000   0.006955  -0.000318  -0.008651   0.569335
 Mulliken charges:
               1
     1  C   -0.098010
     2  C   -0.198235
     3  C    0.160158
     4  C    0.160145
     5  C   -0.198187
     6  C   -0.098085
     7  C   -0.241356
     8  C   -0.241307
     9  C    0.160221
    10  C    0.160154
    11  C   -0.198198
    12  H    0.100932
    13  C   -0.098044
    14  C   -0.098038
    15  C   -0.198215
    16  H    0.094581
    17  H    0.108533
    18  H    0.100931
    19  H    0.100926
    20  H    0.108523
    21  H    0.094583
    22  H    0.108523
    23  H    0.108531
    24  H    0.100935
 Sum of Mulliken charges =  -0.00000
 Mulliken charges with hydrogens summed into heavy atoms:
               1
     1  C    0.010523
     2  C   -0.097304
     3  C    0.160158
     4  C    0.160145
     5  C   -0.097261
     6  C    0.010438
     7  C   -0.146776
     8  C   -0.146724
     9  C    0.160221
    10  C    0.160154
    11  C   -0.097266
    13  C    0.010479
    14  C    0.010493
    15  C   -0.097280
 Electronic spatial extent (au):  <R**2>=           2853.7342
 Charge=             -0.0000 electrons
 Dipole moment (field-independent basis, Debye):
    X=              0.0002    Y=              0.0001    Z=              0.0041  Tot=              0.0041
 Quadrupole moment (field-independent basis, Debye-Ang):
   XX=            -71.9599   YY=            -72.2473   ZZ=            -88.3133
   XY=              0.0018   XZ=             -0.0016   YZ=              0.0036
 Traceless Quadrupole moment (field-independent basis, Debye-Ang):
   XX=              5.5470   YY=              5.2595   ZZ=            -10.8065
   XY=              0.0018   XZ=             -0.0016   YZ=              0.0036
 Octapole moment (field-independent basis, Debye-Ang**2):
  XXX=             -0.0007  YYY=              0.0009  ZZZ=             -0.0004  XYY=              0.0038
  XXY=              0.0048  XXZ=              0.1699  XZZ=              0.0002  YZZ=              0.0000
  YYZ=             -0.0053  XYZ=             -0.0391
 Hexadecapole moment (field-independent basis, Debye-Ang**3):
 XXXX=          -2853.3463 YYYY=           -704.6334 ZZZZ=           -104.9580 XXXY=              0.0307
 XXXZ=              0.0457 YYYX=              0.0137 YYYZ=              0.0278 ZZZX=             -0.0041
 ZZZY=              0.0037 XXYY=           -611.4723 XXZZ=           -611.7446 YYZZ=           -163.2333
 XXYZ=              0.0415 YYXZ=             -0.0343 ZZXY=              0.0002
 N-N= 7.664585602365D+02 E-N=-2.784154517537D+03  KE= 5.366034703504D+02
 No NMR shielding tensors so no spin-rotation constants.
 Leave Link  601 at Wed Apr  3 15:41:44 2024, MaxMem= 33554432000 cpu:              10.9 elap:               0.4
 (Enter /apps/gaussian/g16-c01-avx2/g16/l701.exe)
 ... and contract with generalized density number  0.
 Compute integral first derivatives.
   1 Symmetry operations used in ECPInt.
 ECPInt:  NShTT=   18915 NPrTT=   58308 LenC2=   17605 LenP2D=   40917.
 LDataN:  DoStor=T MaxTD1= 7 Len=  274
 Leave Link  701 at Wed Apr  3 15:41:45 2024, MaxMem= 33554432000 cpu:              10.8 elap:               0.4
 (Enter /apps/gaussian/g16-c01-avx2/g16/l702.exe)
 L702 exits ... SP integral derivatives will be done elsewhere.
 Leave Link  702 at Wed Apr  3 15:41:45 2024, MaxMem= 33554432000 cpu:               0.4 elap:               0.0
 (Enter /apps/gaussian/g16-c01-avx2/g16/l703.exe)
 Integral derivatives from FoFJK, PRISM(SPDF).
 Compute integral first derivatives, UseDBF=F ICtDFT=           0.
 Calling FoFJK, ICntrl=      2127 FMM=F ISym2X=0 I1Cent= 0 IOpClX= 0 NMat=1 NMatS=1 NMatT=0.
 FoFJK:  IHMeth= 1 ICntrl=    2127 DoSepK=F KAlg= 0 I1Cent=           0 FoldK=F
 IRaf=         0 NMat=       1 IRICut=       1 DoRegI=T DoRafI=F ISym2E= 0 IDoP0=0 IntGTp=1.
 FoFCou: FMM=F IPFlag=           0 FMFlag=      100000 FMFlg1=         800
         NFxFlg=           0 DoJE=F BraDBF=F KetDBF=F FulRan=T
         wScrn=  0.000000 ICntrl=      2127 IOpCl=  0 I1Cent=           0 NGrid=           0
         NMat0=    1 NMatS0=      1 NMatT0=    0 NMatD0=    1 NMtDS0=    0 NMtDT0=    0
 Symmetry not used in FoFCou.
 Leave Link  703 at Wed Apr  3 15:42:09 2024, MaxMem= 33554432000 cpu:             769.6 elap:              24.2
 (Enter /apps/gaussian/g16-c01-avx2/g16/l716.exe)
 Dipole        = 8.84069877D-05 2.07317477D-05 1.60925168D-03
 ***** Axes restored to original set *****
 -------------------------------------------------------------------
 Center     Atomic                   Forces (Hartrees/Bohr)
 Number     Number              X              Y              Z
 -------------------------------------------------------------------
      1        6          -0.005025500   -0.007043859   -0.000046098
      2        6           0.004599294   -0.005095233    0.000308448
      3        6           0.004565364   -0.011191544   -0.000170077
      4        6          -0.007585028    0.009411401    0.000121833
      5        6          -0.002235093    0.006508164   -0.000165207
      6        6          -0.008623231   -0.001060299   -0.000097920
      7        6           0.001751527   -0.003019189    0.000082562
      8        6          -0.001779352    0.002991719    0.000034154
      9        6          -0.004622782    0.011219004    0.000002245
     10        6           0.007590030   -0.009443856   -0.000116992
     11        6           0.002251885   -0.006526874    0.000192166
     12        1          -0.004639799    0.009971527   -0.000106859
     13        6           0.008632484    0.000984877   -0.000067877
     14        6           0.005031754    0.007053301    0.000117416
     15        6          -0.004575258    0.005133096   -0.000092632
     16        1          -0.005522497    0.009457118   -0.000036125
     17        1           0.006968932    0.008807162   -0.000060634
     18        1          -0.006438217    0.008901726   -0.000050471
     19        1           0.004634814   -0.009959447    0.000091311
     20        1           0.011079520    0.001874844    0.000056295
     21        1           0.005575146   -0.009426813    0.000025930
     22        1          -0.011090519   -0.001842388   -0.000050093
     23        1          -0.007006204   -0.008798452   -0.000058164
     24        1           0.006462733   -0.008905986    0.000086788
 -------------------------------------------------------------------
 Cartesian Forces:  Max     0.011219004 RMS     0.005688386
 Leave Link  716 at Wed Apr  3 15:42:09 2024, MaxMem= 33554432000 cpu:               0.3 elap:               0.0
 (Enter /apps/gaussian/g16-c01-avx2/g16/l103.exe)

 GradGradGradGradGradGradGradGradGradGradGradGradGradGradGradGradGradGrad
 Berny optimization.
 FormGI is forming the generalized inverse of G from B-inverse, IUseBI=4.
 Internal  Forces:  Max     0.011149525 RMS     0.003352606
 Search for a local minimum.
 Step number   1 out of a maximum of  142
 All quantities printed in internal units (Hartrees-Bohrs-Radians)
 RMS Force = .33526D-02 SwitMx=.10000D-02 MixMth= 1
 Mixed Optimization -- RFO/linear search
 Second derivative matrix not updated -- first step.
 ITU=  0
     Eigenvalues ---    0.01753   0.01761   0.01770   0.01819   0.01820
     Eigenvalues ---    0.01905   0.01979   0.01979   0.02000   0.02009
     Eigenvalues ---    0.02100   0.02100   0.02100   0.02119   0.02119
     Eigenvalues ---    0.02155   0.02155   0.02224   0.02226   0.02348
     Eigenvalues ---    0.02351   0.16000   0.16000   0.16000   0.16000
     Eigenvalues ---    0.16000   0.16000   0.16000   0.16000   0.16000
     Eigenvalues ---    0.16000   0.22000   0.22000   0.22418   0.22571
     Eigenvalues ---    0.23279   0.23870   0.24474   0.24630   0.25000
     Eigenvalues ---    0.33577   0.33577   0.33629   0.33629   0.33632
     Eigenvalues ---    0.33632   0.33681   0.33681   0.33683   0.33683
     Eigenvalues ---    0.35786   0.38233   0.38542   0.38614   0.40222
     Eigenvalues ---    0.40749   0.41161   0.41414   0.41774   0.44931
     Eigenvalues ---    0.45767   0.45768   0.49847   0.49859   0.51294
     Eigenvalues ---    0.51336
 RFO step:  Lambda=-4.37081026D-03 EMin= 1.75341455D-02
 Linear search not attempted -- first point.
 Iteration  1 RMS(Cart)=  0.01197673 RMS(Int)=  0.00005196
 Iteration  2 RMS(Cart)=  0.00008047 RMS(Int)=  0.00000403
 Iteration  3 RMS(Cart)=  0.00000001 RMS(Int)=  0.00000403
 ITry= 1 IFail=0 DXMaxC= 4.05D-02 DCOld= 1.00D+10 DXMaxT= 3.00D-01 DXLimC= 3.00D+00 Rises=F
 Variable       Old X    -DE/DX   Delta X   Delta X   Delta X     New X
                                 (Linear)    (Quad)   (Total)
    R1        2.57876  -0.00287   0.00000  -0.00564  -0.00564   2.57312
    R2        2.69438  -0.00187   0.00000  -0.00489  -0.00489   2.68949
    R3        2.07869  -0.01114   0.00000  -0.03264  -0.03264   2.04605
    R4        2.70768  -0.00391   0.00000  -0.00932  -0.00932   2.69836
    R5        2.07956  -0.01095   0.00000  -0.03214  -0.03214   2.04742
    R6        2.70000   0.00537   0.00000   0.01336   0.01336   2.71335
    R7        2.64391  -0.00281   0.00000  -0.00609  -0.00609   2.63782
    R8        2.70768  -0.00390   0.00000  -0.00930  -0.00930   2.69838
    R9        2.64390  -0.00281   0.00000  -0.00609  -0.00609   2.63781
   R10        2.57875  -0.00288   0.00000  -0.00567  -0.00567   2.57308
[...]
          spectrum.

 Band broadening simulated by mean of Gaussian functions with
 Half-Widths at Half-Maximum of  250.00 cm^(-1)
 
 Legend:
 -------
 1st col.: Energy (in cm^-1)
 2nd col.: Intensity at T=0K
 Intensity: Emitted intensity (in microJ.mol^-1)
 -----------------------------
    15520.1270    0.403967D+01
    15540.1270    0.413349D+01
    15560.1270    0.422716D+01
    15580.1270    0.432029D+01
    15600.1270    0.441245D+01
    15620.1270    0.450332D+01
    15640.1270    0.459255D+01
    15660.1270    0.467986D+01
    15680.1270    0.476502D+01
    15700.1270    0.484780D+01
    15720.1270    0.492805D+01
    15740.1270    0.500564D+01
    15760.1270    0.508047D+01
    15780.1270    0.515249D+01
    15800.1270    0.522167D+01
    15820.1270    0.528799D+01
    15840.1270    0.535147D+01
    15860.1270    0.541214D+01
    15880.1270    0.547003D+01
    15900.1270    0.552519D+01
    15920.1270    0.557767D+01
    15940.1270    0.562752D+01
    15960.1270    0.567477D+01
    15980.1270    0.571942D+01
    16000.1270    0.576150D+01
    16020.1270    0.580102D+01
    16040.1270    0.583799D+01
    16060.1270    0.587238D+01
    16080.1270    0.590420D+01
    16100.1270    0.593342D+01
    16120.1270    0.596002D+01
    16140.1270    0.598399D+01
    16160.1270    0.600534D+01
    16180.1270    0.602407D+01
    16200.1270    0.604021D+01
    16220.1270    0.605386D+01
    16240.1270    0.606511D+01
    16260.1270    0.607415D+01
    16280.1270    0.608112D+01
    16300.1270    0.608634D+01
    16320.1270    0.609016D+01
    16340.1270    0.609281D+01
    16360.1270    0.609471D+01
    16380.1270    0.609639D+01
    16400.1270    0.609824D+01
    16420.1270    0.610088D+01
    16440.1270    0.610490D+01
    16460.1270    0.611081D+01
    16480.1270    0.611921D+01
    16500.1270    0.613071D+01
    16520.1270    0.614590D+01
    16540.1270    0.616528D+01
    16560.1270    0.618936D+01
    16580.1270    0.621867D+01
    16600.1270    0.625372D+01
    16620.1270    0.629497D+01
    16640.1270    0.634280D+01
    16660.1270    0.639770D+01
    16680.1270    0.646011D+01
    16700.1270    0.653033D+01
    16720.1270    0.660878D+01
    16740.1270    0.669590D+01
    16760.1270    0.679204D+01
    16780.1270    0.689758D+01
    16800.1270    0.701281D+01
    16820.1270    0.713807D+01
    16840.1270    0.727362D+01
    16860.1270    0.741952D+01
    16880.1270    0.757582D+01
    16900.1270    0.774232D+01
    16920.1270    0.791867D+01
    16940.1270    0.810443D+01
    16960.1270    0.829887D+01
    16980.1270    0.850111D+01
    17000.1270    0.871008D+01
    17020.1270    0.892447D+01
    17040.1270    0.914285D+01
    17060.1270    0.936368D+01
    17080.1270    0.958536D+01
    17100.1270    0.980628D+01
    17120.1270    0.100248D+02
    17140.1270    0.102394D+02
    17160.1270    0.104487D+02
    17180.1270    0.106515D+02
    17200.1270    0.108467D+02
    17220.1270    0.110335D+02
    17240.1270    0.112112D+02
    17260.1270    0.113795D+02
    17280.1270    0.115380D+02
    17300.1270    0.116868D+02
    17320.1270    0.118259D+02
    17340.1270    0.119555D+02
    17360.1270    0.120758D+02
    17380.1270    0.121871D+02
    17400.1270    0.122895D+02
    17420.1270    0.123834D+02
    17440.1270    0.124688D+02
    17460.1270    0.125457D+02
    17480.1270    0.126142D+02
    17500.1270    0.126741D+02
    17520.1270    0.127253D+02
    17540.1270    0.127677D+02
    17560.1270    0.128008D+02
    17580.1270    0.128246D+02
    17600.1270    0.128389D+02
    17620.1270    0.128435D+02
    17640.1270    0.128383D+02
    17660.1270    0.128234D+02
    17680.1270    0.127990D+02
    17700.1270    0.127651D+02
    17720.1270    0.127223D+02
    17740.1270    0.126710D+02
    17760.1270    0.126118D+02
    17780.1270    0.125453D+02
    17800.1270    0.124726D+02
    17820.1270    0.123943D+02
    17840.1270    0.123115D+02
    17860.1270    0.122253D+02
    17880.1270    0.121365D+02
    17900.1270    0.120465D+02
    17920.1270    0.119564D+02
    17940.1270    0.118673D+02
    17960.1270    0.117805D+02
    17980.1270    0.116969D+02
    18000.1270    0.116177D+02
    18020.1270    0.115441D+02
    18040.1270    0.114773D+02
    18060.1270    0.114179D+02
    18080.1270    0.113674D+02
    18100.1270    0.113265D+02
    18120.1270    0.112961D+02
    18140.1270    0.112771D+02
    18160.1270    0.112702D+02
    18180.1270    0.112763D+02
    18200.1270    0.112962D+02
    18220.1270    0.113301D+02
    18240.1270    0.113791D+02
    18260.1270    0.114435D+02
    18280.1270    0.115243D+02
    18300.1270    0.116219D+02
    18320.1270    0.117367D+02
    18340.1270    0.118692D+02
    18360.1270    0.120200D+02
    18380.1270    0.121896D+02
    18400.1270    0.123783D+02
    18420.1270    0.125863D+02
    18440.1270    0.128143D+02
    18460.1270    0.130620D+02
    18480.1270    0.133293D+02
    18500.1270    0.136162D+02
    18520.1270    0.139222D+02
    18540.1270    0.142466D+02
    18560.1270    0.145885D+02
    18580.1270    0.149467D+02
    18600.1270    0.153199D+02
    18620.1270    0.157065D+02
    18640.1270    0.161046D+02
    18660.1270    0.165123D+02
    18680.1270    0.169273D+02
    18700.1270    0.173472D+02
    18720.1270    0.177694D+02
    18740.1270    0.181917D+02
    18760.1270    0.186114D+02
    18780.1270    0.190261D+02
    18800.1270    0.194331D+02
    18820.1270    0.198300D+02
    18840.1270    0.202142D+02
    18860.1270    0.205835D+02
    18880.1270    0.209352D+02
    18900.1270    0.212672D+02
    18920.1270    0.215769D+02
    18940.1270    0.218620D+02
    18960.1270    0.221202D+02
    18980.1270    0.223492D+02
    19000.1270    0.225467D+02
    19020.1270    0.227106D+02
    19040.1270    0.228393D+02
    19060.1270    0.229308D+02
    19080.1270    0.229838D+02
    19100.1270    0.229975D+02
    19120.1270    0.229713D+02
    19140.1270    0.229053D+02
    19160.1270    0.228003D+02
    19180.1270    0.226575D+02
    19200.1270    0.224789D+02
    19220.1270    0.222672D+02
    19240.1270    0.220254D+02
    19260.1270    0.217572D+02
    19280.1270    0.214672D+02
    19300.1270    0.211594D+02
    19320.1270    0.208388D+02
    19340.1270    0.205101D+02
    19360.1270    0.201783D+02
    19380.1270    0.198484D+02
    19400.1270    0.195248D+02
    19420.1270    0.192112D+02
    19440.1270    0.189121D+02
    19460.1270    0.186307D+02
    19480.1270    0.183695D+02
    19500.1270    0.181310D+02
    19520.1270    0.179171D+02
    19540.1270    0.177292D+02
    19560.1270    0.175688D+02
    19580.1270    0.174361D+02
    19600.1270    0.173316D+02
    19620.1270    0.172561D+02
    19640.1270    0.172085D+02
    19660.1270    0.171889D+02
    19680.1270    0.171973D+02
    19700.1270    0.172331D+02
    19720.1270    0.172962D+02
    19740.1270    0.173863D+02
    19760.1270    0.175033D+02
    19780.1270    0.176463D+02
    19800.1270    0.178168D+02
    19820.1270    0.180127D+02
    19840.1270    0.182350D+02
    19860.1270    0.184841D+02
    19880.1270    0.187593D+02
    19900.1270    0.190610D+02
    19920.1270    0.193892D+02
    19940.1270    0.197441D+02
    19960.1270    0.201256D+02
    19980.1270    0.205333D+02
    20000.1270    0.209667D+02
    20020.1270    0.214254D+02
    20040.1270    0.219087D+02
    20060.1270    0.224156D+02
    20080.1270    0.229443D+02
    20100.1270    0.234934D+02
    20120.1270    0.240607D+02
    20140.1270    0.246437D+02
    20160.1270    0.252397D+02
    20180.1270    0.258452D+02
    20200.1270    0.264576D+02
    20220.1270    0.270734D+02
    20240.1270    0.276886D+02
    20260.1270    0.282996D+02
    20280.1270    0.289027D+02
    20300.1270    0.294939D+02
    20320.1270    0.300695D+02
    20340.1270    0.306258D+02
    20360.1270    0.311593D+02
    20380.1270    0.316664D+02
    20400.1270    0.321440D+02
    20420.1270    0.325891D+02
    20440.1270    0.329988D+02
    20460.1270    0.333706D+02
    20480.1270    0.337017D+02
    20500.1270    0.339903D+02
    20520.1270    0.342342D+02
    20540.1270    0.344317D+02
    20560.1270    0.345815D+02
    20580.1270    0.346828D+02
    20600.1270    0.347347D+02
    20620.1270    0.347375D+02
    20640.1270    0.346910D+02
    20660.1270    0.345962D+02
    20680.1270    0.344544D+02
    20700.1270    0.342686D+02
    20720.1270    0.340394D+02
    20740.1270    0.337704D+02
    20760.1270    0.334652D+02
    20780.1270    0.331273D+02
    20800.1270    0.327613D+02
    20820.1270    0.323720D+02
    20840.1270    0.319629D+02
    20860.1270    0.315409D+02
    20880.1270    0.311090D+02
    20900.1270    0.306725D+02
    20920.1270    0.302365D+02
    20940.1270    0.298054D+02
    20960.1270    0.293841D+02
    20980.1270    0.289775D+02
    21000.1270    0.285888D+02
    21020.1270    0.282211D+02
    21040.1270    0.278791D+02
    21060.1270    0.275693D+02
    21080.1270    0.272893D+02
    21100.1270    0.270448D+02
    21120.1270    0.268381D+02
    21140.1270    0.266726D+02
    21160.1270    0.265514D+02
    21180.1270    0.264762D+02
    21200.1270    0.264498D+02
    21220.1270    0.264791D+02
    21240.1270    0.265601D+02
    21260.1270    0.266975D+02
    21280.1270    0.268936D+02
    21300.1270    0.271500D+02
    21320.1270    0.274691D+02
    21340.1270    0.278523D+02
    21360.1270    0.283019D+02
    21380.1270    0.288183D+02
    21400.1270    0.294021D+02
    21420.1270    0.300538D+02
    21440.1270    0.307742D+02
    21460.1270    0.315640D+02
    21480.1270    0.324213D+02
    21500.1270    0.333457D+02
    21520.1270    0.343380D+02
    21540.1270    0.353937D+02
    21560.1270    0.365132D+02
    21580.1270    0.376921D+02
    21600.1270    0.389269D+02
    21620.1270    0.402131D+02
    21640.1270    0.415445D+02
    21660.1270    0.429136D+02
    21680.1270    0.443123D+02
    21700.1270    0.457310D+02
    21720.1270    0.471600D+02
    21740.1270    0.485837D+02
    21760.1270    0.499903D+02
    21780.1270    0.513638D+02
    21800.1270    0.526895D+02
    21820.1270    0.539516D+02
    21840.1270    0.551329D+02
    21860.1270    0.562182D+02
    21880.1270    0.571921D+02
    21900.1270    0.580405D+02
    21920.1270    0.587500D+02
    21940.1270    0.593102D+02
    21960.1270    0.597113D+02
    21980.1270    0.599470D+02
    22000.1270    0.600136D+02
    22020.1270    0.599090D+02
    22040.1270    0.596351D+02
    22060.1270    0.591953D+02
    22080.1270    0.585963D+02
    22100.1270    0.578466D+02
    22120.1270    0.569577D+02
    22140.1270    0.559406D+02
    22160.1270    0.548096D+02
    22180.1270    0.535801D+02
    22200.1270    0.522671D+02
    22220.1270    0.508870D+02
    22240.1270    0.494553D+02
    22260.1270    0.479879D+02
    22280.1270    0.464989D+02
    22300.1270    0.450070D+02
    22320.1270    0.435167D+02
    22340.1270    0.420430D+02
    22360.1270    0.405952D+02
    22380.1270    0.391821D+02
    22400.1270    0.378101D+02
    22420.1270    0.364841D+02
    22440.1270    0.352072D+02
    22460.1270    0.339845D+02
    22480.1270    0.328163D+02
    22500.1270    0.317035D+02
    22520.1270    0.306469D+02
    22540.1270    0.296468D+02
    22560.1270    0.287033D+02
    22580.1270    0.278184D+02
    22600.1270    0.269913D+02
    22620.1270    0.262266D+02
    22640.1270    0.255254D+02
    22660.1270    0.249066D+02
    22680.1270    0.243493D+02
    22700.1270    0.238692D+02
    22720.1270    0.234709D+02
    22740.1270    0.231622D+02
    22760.1270    0.229483D+02
    22780.1270    0.228336D+02
    22800.1270    0.228198D+02
    22820.1270    0.229176D+02
    22840.1270    0.231252D+02
    22860.1270    0.234443D+02
    22880.1270    0.238744D+02
    22900.1270    0.244137D+02
    22920.1270    0.250599D+02
    22940.1270    0.258088D+02
    22960.1270    0.266513D+02
    22980.1270    0.275922D+02
    23000.1270    0.286206D+02
    23020.1270    0.297320D+02
    23040.1270    0.309224D+02
    23060.1270    0.321892D+02
    23080.1270    0.335312D+02
    23100.1270    0.349459D+02
    23120.1270    0.364385D+02
    23140.1270    0.380078D+02
    23160.1270    0.396545D+02
    23180.1270    0.413787D+02
    23200.1270    0.431777D+02
    23220.1270    0.450486D+02
    23240.1270    0.469809D+02
    23260.1270    0.489599D+02
    23280.1270    0.509679D+02
    23300.1270    0.529787D+02
    23320.1270    0.549601D+02
    23340.1270    0.568746D+02
    23360.1270    0.586807D+02
    23380.1270    0.603319D+02
    23400.1270    0.617805D+02
    23420.1270    0.629782D+02
    23440.1270    0.638791D+02
    23460.1270    0.644396D+02
    23480.1270    0.646279D+02
    23500.1270    0.644142D+02
    23520.1270    0.637815D+02
    23540.1270    0.627231D+02
    23560.1270    0.612439D+02
    23580.1270    0.593607D+02
    23600.1270    0.571013D+02
    23620.1270    0.545036D+02
    23640.1270    0.516135D+02
    23660.1270    0.484856D+02
    23680.1270    0.451764D+02
    23700.1270    0.417470D+02
    23720.1270    0.382569D+02
    23740.1270    0.347640D+02
    23760.1270    0.313231D+02
    23780.1270    0.279824D+02
    23800.1270    0.247841D+02
    23820.1270    0.217625D+02
    23840.1270    0.189443D+02
    23860.1270    0.163475D+02
    23880.1270    0.139848D+02
    23900.1270    0.118594D+02
    23920.1270    0.996890D+01
    23940.1270    0.830677D+01
    23960.1270    0.686115D+01
    23980.1270    0.561741D+01
    24000.1270    0.455848D+01
    24020.1270    0.366692D+01
    24040.1270    0.292002D+01
    24060.1270    0.230821D+01
    24080.1270    0.180846D+01
    24100.1270    0.140440D+01
    24120.1270    0.108099D+01
    24140.1270    0.824687D+00
    24160.1270    0.623610D+00
    24180.1270    0.467395D+00
    24200.1270    0.347213D+00
    24220.1270    0.255659D+00
    24240.1270    0.186584D+00
    24260.1270    0.134968D+00
    24280.1270    0.967693D-01
    24300.1270    0.687686D-01
    24320.1270    0.484384D-01
    24340.1270    0.338170D-01
    24360.1270    0.234007D-01
    24380.1270    0.160497D-01
    24400.1270    0.000000D+00
    24420.1270    0.000000D+00
    24440.1270    0.000000D+00
    24460.1270    0.000000D+00
    24480.1270    0.000000D+00
    24500.1270    0.000000D+00
    24520.1270    0.000000D+00
 -----------------------------

 Leave Link  718 at Wed Apr  3 17:04:57 2024, MaxMem= 33554432000 cpu:             758.3 elap:              23.9
 (Enter /apps/gaussian/g16-c01-avx2/g16/l9999.exe)

 ----------------------------------------------------------------------

 Electric dipole moment (input orientation):
 (Debye = 10**-18 statcoulomb cm , SI units = C m)
                  (au)            (Debye)         (10**-30 SI)
   Tot        0.151742D-04      0.385690D-04      0.128652D-03
   x          0.000000D+00      0.000000D+00      0.000000D+00
   y          0.000000D+00      0.000000D+00      0.000000D+00
   z         -0.151742D-04     -0.385690D-04     -0.128652D-03

 Dipole polarizability, Alpha (input orientation).
 (esu units = cm**3 , SI units = C**2 m**2 J**-1)
 Alpha(0;0):
               (au)            (10**-24 esu)      (10**-40 SI)
   iso        0.175854D+03      0.260589D+02      0.289945D+02
   aniso      0.182286D+03      0.270120D+02      0.300549D+02
   xx         0.255144D+03      0.378084D+02      0.420675D+02
   yx         0.547206D+02      0.810875D+01      0.902220D+01
   yy         0.194231D+03      0.287820D+02      0.320243D+02
   zx         0.480779D+00      0.712440D-01      0.792697D-01
   zy        -0.119661D+00     -0.177320D-01     -0.197295D-01
   zz         0.781890D+02      0.115864D+02      0.128916D+02

 ----------------------------------------------------------------------

 Dipole orientation:
     6         -6.75026809          1.56135595         -1.14064437
     6         -4.65281145          2.67589337         -0.14113221
     6         -2.29774633          1.37016390         -0.05008532
     6         -2.17479649         -1.16190368         -1.03910957
     6         -4.41346466         -2.25380719         -2.06656311
     6         -6.62889631         -0.93856346         -2.11704225
     6         -0.11939547          2.45904863          0.96045973
     6          0.11942281         -2.45900619         -0.96057117
     6          2.29777709         -1.37011911          0.04996489
     6          2.17481230          1.16192591          1.03904808
     6          4.41343190          2.25376199          2.06667878
     1          4.31965008          4.15932427          2.81079365
     6          6.62883568          0.93847616          2.11726938
     6          6.75025380         -1.56137328          1.14069847
     6          4.65285105         -2.67583489          0.14098701
     1         -0.21198932          4.36620627          1.70538782
     1         -8.52581644          2.57655243         -1.19680436
     1         -4.74409343          4.58141339          0.60340277
     1         -4.31970711         -4.15941063         -2.81057431
     1         -8.31367282         -1.79274363         -2.90333414
     1          0.21205052         -4.36614726         -1.70553567
     1          8.31357569          1.79258852          2.90371272
     1          8.52577800         -2.57660870          1.19692477
     1          4.74418973         -4.58128321         -0.60372337

 Electric dipole moment (dipole orientation):
 (Debye = 10**-18 statcoulomb cm , SI units = C m)
                  (au)            (Debye)         (10**-30 SI)
   Tot        0.168391D-04      0.428008D-04      0.142768D-03
   x          0.000000D+00      0.000000D+00      0.000000D+00
   y          0.000000D+00      0.000000D+00      0.000000D+00
   z          0.168391D-04      0.428008D-04      0.142768D-03

 Dipole polarizability, Alpha (dipole orientation).
 (esu units = cm**3 , SI units = C**2 m**2 J**-1)
 Alpha(0;0):
               (au)            (10**-24 esu)      (10**-40 SI)
   iso        0.175854D+03      0.260589D+02      0.289945D+02
   aniso      0.182286D+03      0.270120D+02      0.300549D+02
   xx         0.250153D+03      0.370688D+02      0.412446D+02
   yx        -0.619849D+02     -0.918522D+01     -0.102199D+02
   yy         0.183692D+03      0.272203D+02      0.302867D+02
   zx         0.195893D+02      0.290284D+01      0.322984D+01
   zy         0.261973D+02      0.388204D+01      0.431935D+01
   zz         0.937191D+02      0.138877D+02      0.154522D+02

 ----------------------------------------------------------------------

 This type of calculation cannot be archived.


 EXPERIMENTALISTS THINK SILICON IS REALLY FUN TO USE
     ITS PLACE IN NOVEL COMPOUNDS IS CERTAIN TO AMUSE
 THEY SIT ALL DAY IN LABORATORIES MAKING ALL THIS SLUDGE
     "LOADED WITH THE SILICON THEY SAY", TO ME IT LOOKS LIKE FUDGE.
 FOR HAPPY THOUGH THEY BE WITH CRUD, I'D LIKE TO KNOW A LITTLE
      ABOUT THE PI BONDS ON THE EDGE AND SIGMAS IN THE MIDDLE.

 SO LETS DERIVE A WAVEFUNCTION.....6-31G*
     USE AN OPTIMAL GEOMETRY AND SEE WHERE ELECTRONS ARE.
 BUT WHAT OF CORRELATION?  ASKS THE WIRY LITTLE SKEPTIC.
     WE'LL THROW IN PERTURBATION AS AN ELECTRON ANTISEPTIC.
 AND WHEN THE PROGRAM GIVES US ANSWERS IN THEM WE CAN TRUST
     SINCE NOBODY CAN MAKE THE STUFF, WE HAVE NO CHOICE, WE MUST.

 SO THEORY GUYS HAVE GOT IT MADE, IN ROOMS FREE OF POLLUTION.
     INSTEAD OF PROBLEMS WITH THE REFLUX, THEY HAVE ONLY SOLUTIONS.
 AND WHEN THE FEDS ANNOUNCE THE LIST OF CARCINOGENIC TERRORS,
     THE THEORISTS SIT SAFELY AT THEIR TERMINALS FIXING ERRORS.
 IN OTHER WORDS, EXPERIMENTALISTS WILL LIKELY DIE OF CANCER
     FROM WORKING HARD YET FRUITLESSLY...TILL THEORY GIVES THE ANSWER.
          -- THOMAS A. HOLME, 1983
 Job cpu time:       0 days  0 hours 12 minutes 46.8 seconds.
 Elapsed time:       0 days  0 hours  0 minutes 24.2 seconds.
 File lengths (MBytes):  RWF=      6 Int=      0 D2E=      0 Chk=     21 Scr=      1
 Normal termination of Gaussian 16 at Wed Apr  3 17:04:58 2024.
