 Entering Gaussian System, Link 0=g16
 Input=Anthracene_c.gjf
 Output=Anthracene_c.log
 Initial command:
 /apps/gaussian/g16-c01-avx2/g16/l1.exe "/var/tmp/pbs.9194964.pbs/Gau-2535368.inp" -scrdir="/var/tmp/pbs.9194964.pbs/"
 Entering Link 1 = /apps/gaussian/g16-c01-avx2/g16/l1.exe PID=   2535369.
  
 Copyright (c) 1988-2019, Gaussian, Inc.  All Rights Reserved.
  
 This is part of the Gaussian(R) 16 program.  It is based on
 the Gaussian(R) 09 system (copyright 2009, Gaussian, Inc.),
 the Gaussian(R) 03 system (copyright 2003, Gaussian, Inc.),
 the Gaussian(R) 98 system (copyright 1998, Gaussian, Inc.),
 the Gaussian(R) 94 system (copyright 1995, Gaussian, Inc.),
 the Gaussian 92(TM) system (copyright 1992, Gaussian, Inc.),
 the Gaussian 90(TM) system (copyright 1990, Gaussian, Inc.),
 the Gaussian 88(TM) system (copyright 1988, Gaussian, Inc.),
 the Gaussian 86(TM) system (copyright 1986, Carnegie Mellon
 University), and the Gaussian 82(TM) system (copyright 1983,
 Carnegie Mellon University). Gaussian is a federally registered
 trademark of Gaussian, Inc.
  
 This software contains proprietary and confidential information,
 including trade secrets, belonging to Gaussian, Inc.
  
 This software is provided under written license and may be
 used, copied, transmitted, or stored only in accord with that
 written license.
  
 The following legend is applicable only to US Government
 contracts under FAR:
  
                    RESTRICTED RIGHTS LEGEND
  
 Use, reproduction and disclosure by the US Government is
 subject to restrictions as set forth in subparagraphs (a)
 and (c) of the Commercial Computer Software - Restricted
 Rights clause in FAR 52.227-19.
  
 Gaussian, Inc.
 340 Quinnipiac St., Bldg. 40, Wallingford CT 06492
  
  
 ---------------------------------------------------------------
 Warning -- This program may not be used in any manner that
 competes with the business of Gaussian, Inc. or will provide
 assistance to any competitor of Gaussian, Inc.  The licensee
 of this program is prohibited from giving any competitor of
 Gaussian, Inc. access to this program.  By using this program,
 the user acknowledges that Gaussian, Inc. is engaged in the
 business of creating and licensing software in the field of
 computational chemistry and represents and warrants to the
 licensee that it is not a competitor of Gaussian, Inc. and that
 it will not use this program in any manner prohibited above.
 ---------------------------------------------------------------
  

 Cite this work as:
 Gaussian 16, Revision C.01,
 M. J. Frisch, G. W. Trucks, H. B. Schlegel, G. E. Scuseria, 
 M. A. Robb, J. R. Cheeseman, G. Scalmani, V. Barone, 
 G. A. Petersson, H. Nakatsuji, X. Li, M. Caricato, A. V. Marenich, 
 J. Bloino, B. G. Janesko, R. Gomperts, B. Mennucci, H. P. Hratchian, 
 J. V. Ortiz, A. F. Izmaylov, J. L. Sonnenberg, D. Williams-Young, 
 F. Ding, F. Lipparini, F. Egidi, J. Goings, B. Peng, A. Petrone, 
 T. Henderson, D. Ranasinghe, V. G. Zakrzewski, J. Gao, N. Rega, 
 G. Zheng, W. Liang, M. Hada, M. Ehara, K. Toyota, R. Fukuda, 
 J. Hasegawa, M. Ishida, T. Nakajima, Y. Honda, O. Kitao, H. Nakai, 
 T. Vreven, K. Throssell, J. A. Montgomery, Jr., J. E. Peralta, 
 F. Ogliaro, M. J. Bearpark, J. J. Heyd, E. N. Brothers, K. N. Kudin, 
 V. N. Staroverov, T. A. Keith, R. Kobayashi, J. Normand, 
 K. Raghavachari, A. P. Rendell, J. C. Burant, S. S. Iyengar, 
 J. Tomasi, M. Cossi, J. M. Millam, M. Klene, C. Adamo, R. Cammi, 
 J. W. Ochterski, R. L. Martin, K. Morokuma, O. Farkas, 
 J. B. Foresman, and D. J. Fox, Gaussian, Inc., Wallingford CT, 2019.
 
 ******************************************
 Gaussian 16:  ES64L-G16RevC.01  3-Jul-2019
                 3-Apr-2024 
 ******************************************
 %mem=250GB
 %nprocshared=32
 Will use up to   32 processors via shared memory.
 %chk=Anthracene_c_1-1.chk
 --------------------------------------------
 #p opt freq b3lyp/def2tzvp geom=connectivity
 --------------------------------------------
 1/18=20,19=15,26=3,38=1,57=2/1,3;
 2/9=110,12=2,17=6,18=5,40=1/2;
 3/5=44,7=101,11=2,25=1,30=1,71=1,74=-5/1,2,3;
 4//1;
 5/5=2,38=5/2;
 6/7=2,8=2,9=2,10=2,28=1/1;
 7//1,2,3,16;
 1/18=20,19=15,26=3/3(2);
 2/9=110/2;
 99//99;
 2/9=110/2;
 3/5=44,7=101,11=2,25=1,30=1,71=1,74=-5/1,2,3;
 4/5=5,16=3,69=1/1;
 5/5=2,38=5/2;
 7//1,2,3,16;
 1/18=20,19=15,26=3/3(-5);
 2/9=110/2;
 6/7=2,8=2,9=2,10=2,19=2,28=1/1;
 99/9=1/99;
 Leave Link    1 at Wed Apr  3 15:27:08 2024, MaxMem= 33554432000 cpu:               0.5 elap:               0.0
 (Enter /apps/gaussian/g16-c01-avx2/g16/l101.exe)
 ----------------------------------------------------------------------
 Ground state optimization and frequency calculation for cationic anthr
 acene.
 ----------------------------------------------------------------------
 Symbolic Z-matrix:
 Charge =  1 Multiplicity = 2
 C                    -7.0226   -3.18779  -0.01292 
 C                    -5.65798  -3.18779  -0.01292 
 C                    -4.92509  -1.95657  -0.01292 
 C                    -5.64909  -0.72482  -0.01843 
 C                    -7.08133  -0.76631  -0.01973 
 C                    -7.74511  -1.95861  -0.01636 
 C                    -3.52619  -1.93368  -0.00802 
 C                    -4.94871   0.48634  -0.02016 
 C                    -3.54977   0.50923  -0.01453 
 C                    -2.8258   -0.72248  -0.00711 
 C                    -1.39362  -0.68085   0. 
 H                    -0.84775  -1.63638   0.0066 
 C                    -0.72988   0.5115    0.00104 
 C                    -1.45236   1.74062  -0.00713 
 C                    -2.81701   1.74047  -0.0145 
 H                    -2.96849  -2.88292  -0.0037 
 H                    -7.58848  -4.13107  -0.01051 
 H                    -5.08865  -4.12953  -0.00981 
 H                    -7.62714   0.18923  -0.02434 
 H                    -8.84451  -1.99477  -0.01779 
 H                    -5.50685   1.43532  -0.02442 
 H                     0.36953   0.54741   0.0072 
 H                    -0.88628   2.6838   -0.00604 
 H                    -3.38655   2.68209  -0.02077 
 
 ITRead=  0  0  0  0  0  0  0  0  0  0  0  0  0  0  0  0  0  0  0  0
 ITRead=  0  0  0  0
 MicOpt= -1 -1 -1 -1 -1 -1 -1 -1 -1 -1 -1 -1 -1 -1 -1 -1 -1 -1 -1 -1
 MicOpt= -1 -1 -1 -1
 NAtoms=     24 NQM=       24 NQMF=       0 NMMI=      0 NMMIF=      0
                NMic=       0 NMicF=      0.
                    Isotopes and Nuclear Properties:
 (Nuclear quadrupole moments (NQMom) in fm**2, nuclear magnetic moments (NMagM)
  in nuclear magnetons)

  Atom         1           2           3           4           5           6           7           8           9          10
 IAtWgt=          12          12          12          12          12          12          12          12          12          12
 AtmWgt=  12.0000000  12.0000000  12.0000000  12.0000000  12.0000000  12.0000000  12.0000000  12.0000000  12.0000000  12.0000000
 NucSpn=           0           0           0           0           0           0           0           0           0           0
 AtZEff=  -0.0000000  -0.0000000  -0.0000000  -0.0000000  -0.0000000  -0.0000000  -0.0000000  -0.0000000  -0.0000000  -0.0000000
 NQMom=    0.0000000   0.0000000   0.0000000   0.0000000   0.0000000   0.0000000   0.0000000   0.0000000   0.0000000   0.0000000
 NMagM=    0.0000000   0.0000000   0.0000000   0.0000000   0.0000000   0.0000000   0.0000000   0.0000000   0.0000000   0.0000000
 AtZNuc=   6.0000000   6.0000000   6.0000000   6.0000000   6.0000000   6.0000000   6.0000000   6.0000000   6.0000000   6.0000000

  Atom        11          12          13          14          15          16          17          18          19          20
 IAtWgt=          12           1          12          12          12           1           1           1           1           1
 AtmWgt=  12.0000000   1.0078250  12.0000000  12.0000000  12.0000000   1.0078250   1.0078250   1.0078250   1.0078250   1.0078250
 NucSpn=           0           1           0           0           0           1           1           1           1           1
 AtZEff=  -0.0000000  -0.0000000  -0.0000000  -0.0000000  -0.0000000  -0.0000000  -0.0000000  -0.0000000  -0.0000000  -0.0000000
 NQMom=    0.0000000   0.0000000   0.0000000   0.0000000   0.0000000   0.0000000   0.0000000   0.0000000   0.0000000   0.0000000
 NMagM=    0.0000000   2.7928460   0.0000000   0.0000000   0.0000000   2.7928460   2.7928460   2.7928460   2.7928460   2.7928460
 AtZNuc=   6.0000000   1.0000000   6.0000000   6.0000000   6.0000000   1.0000000   1.0000000   1.0000000   1.0000000   1.0000000

  Atom        21          22          23          24
 IAtWgt=           1           1           1           1
 AtmWgt=   1.0078250   1.0078250   1.0078250   1.0078250
 NucSpn=           1           1           1           1
 AtZEff=  -0.0000000  -0.0000000  -0.0000000  -0.0000000
 NQMom=    0.0000000   0.0000000   0.0000000   0.0000000
 NMagM=    2.7928460   2.7928460   2.7928460   2.7928460
 AtZNuc=   1.0000000   1.0000000   1.0000000   1.0000000
 Leave Link  101 at Wed Apr  3 15:27:09 2024, MaxMem= 33554432000 cpu:               5.0 elap:               0.2
 (Enter /apps/gaussian/g16-c01-avx2/g16/l103.exe)

 GradGradGradGradGradGradGradGradGradGradGradGradGradGradGradGradGradGrad
 Berny optimization.
 Initialization pass.
                           ----------------------------
                           !    Initial Parameters    !
                           ! (Angstroms and Degrees)  !
 --------------------------                            --------------------------
 ! Name  Definition              Value          Derivative Info.                !
 --------------------------------------------------------------------------------
 ! R1    R(1,2)                  1.3646         estimate D2E/DX2                !
 ! R2    R(1,6)                  1.4258         estimate D2E/DX2                !
 ! R3    R(1,17)                 1.1            estimate D2E/DX2                !
 ! R4    R(2,3)                  1.4328         estimate D2E/DX2                !
 ! R5    R(2,18)                 1.1005         estimate D2E/DX2                !
 ! R6    R(3,4)                  1.4288         estimate D2E/DX2                !
 ! R7    R(3,7)                  1.3991         estimate D2E/DX2                !
 ! R8    R(4,5)                  1.4328         estimate D2E/DX2                !
 ! R9    R(4,8)                  1.3991         estimate D2E/DX2                !
 ! R10   R(5,6)                  1.3646         estimate D2E/DX2                !
 ! R11   R(5,19)                 1.1005         estimate D2E/DX2                !
 ! R12   R(6,20)                 1.1            estimate D2E/DX2                !
 ! R13   R(7,10)                 1.3991         estimate D2E/DX2                !
 ! R14   R(7,16)                 1.101          estimate D2E/DX2                !
 ! R15   R(8,9)                  1.3991         estimate D2E/DX2                !
 ! R16   R(8,21)                 1.101          estimate D2E/DX2                !
 ! R17   R(9,10)                 1.4287         estimate D2E/DX2                !
 ! R18   R(9,15)                 1.4328         estimate D2E/DX2                !
 ! R19   R(10,11)                1.4328         estimate D2E/DX2                !
 ! R20   R(11,12)                1.1005         estimate D2E/DX2                !
 ! R21   R(11,13)                1.3646         estimate D2E/DX2                !
 ! R22   R(13,14)                1.4258         estimate D2E/DX2                !
 ! R23   R(13,22)                1.1            estimate D2E/DX2                !
 ! R24   R(14,15)                1.3647         estimate D2E/DX2                !
 ! R25   R(14,23)                1.1            estimate D2E/DX2                !
 ! R26   R(15,24)                1.1005         estimate D2E/DX2                !
 ! A1    A(2,1,6)              120.4466         estimate D2E/DX2                !
 ! A2    A(2,1,17)             120.9594         estimate D2E/DX2                !
 ! A3    A(6,1,17)             118.5939         estimate D2E/DX2                !
 ! A4    A(1,2,3)              120.7635         estimate D2E/DX2                !
 ! A5    A(1,2,18)             121.155          estimate D2E/DX2                !
 ! A6    A(3,2,18)             118.0813         estimate D2E/DX2                !
 ! A7    A(2,3,4)              118.7901         estimate D2E/DX2                !
 ! A8    A(2,3,7)              121.7006         estimate D2E/DX2                !
 ! A9    A(4,3,7)              119.5092         estimate D2E/DX2                !
 ! A10   A(3,4,5)              118.7868         estimate D2E/DX2                !
 ! A11   A(3,4,8)              119.5145         estimate D2E/DX2                !
 ! A12   A(5,4,8)              121.6986         estimate D2E/DX2                !
 ! A13   A(4,5,6)              120.765          estimate D2E/DX2                !
 ! A14   A(4,5,19)             118.0759         estimate D2E/DX2                !
 ! A15   A(6,5,19)             121.1591         estimate D2E/DX2                !
 ! A16   A(1,6,5)              120.4476         estimate D2E/DX2                !
 ! A17   A(1,6,20)             118.5627         estimate D2E/DX2                !
 ! A18   A(5,6,20)             120.9896         estimate D2E/DX2                !
 ! A19   A(3,7,10)             120.9763         estimate D2E/DX2                !
 ! A20   A(3,7,16)             119.4985         estimate D2E/DX2                !
 ! A21   A(10,7,16)            119.5252         estimate D2E/DX2                !
 ! A22   A(4,8,9)              120.9759         estimate D2E/DX2                !
 ! A23   A(4,8,21)             119.499          estimate D2E/DX2                !
 ! A24   A(9,8,21)             119.5251         estimate D2E/DX2                !
 ! A25   A(8,9,10)             119.5096         estimate D2E/DX2                !
 ! A26   A(8,9,15)             121.6954         estimate D2E/DX2                !
 ! A27   A(10,9,15)            118.7949         estimate D2E/DX2                !
 ! A28   A(7,10,9)             119.5142         estimate D2E/DX2                !
 ! A29   A(7,10,11)            121.7035         estimate D2E/DX2                !
 ! A30   A(9,10,11)            118.7822         estimate D2E/DX2                !
 ! A31   A(10,11,12)           118.0746         estimate D2E/DX2                !
 ! A32   A(10,11,13)           120.7675         estimate D2E/DX2                !
 ! A33   A(12,11,13)           121.1578         estimate D2E/DX2                !
 ! A34   A(11,13,14)           120.4489         estimate D2E/DX2                !
 ! A35   A(11,13,22)           120.9732         estimate D2E/DX2                !
 ! A36   A(14,13,22)           118.5779         estimate D2E/DX2                !
 ! A37   A(13,14,15)           120.4423         estimate D2E/DX2                !
 ! A38   A(13,14,23)           118.5802         estimate D2E/DX2                !
 ! A39   A(15,14,23)           120.9774         estimate D2E/DX2                !
 ! A40   A(9,15,14)            120.7641         estimate D2E/DX2                !
 ! A41   A(9,15,24)            118.0731         estimate D2E/DX2                !
 ! A42   A(14,15,24)           121.1628         estimate D2E/DX2                !
 ! D1    D(6,1,2,3)              0.1607         estimate D2E/DX2                !
 ! D2    D(6,1,2,18)           179.9717         estimate D2E/DX2                !
 ! D3    D(17,1,2,3)          -179.854          estimate D2E/DX2                !
 ! D4    D(17,1,2,18)           -0.0429         estimate D2E/DX2                !
 ! D5    D(2,1,6,5)              0.0013         estimate D2E/DX2                !
 ! D6    D(2,1,6,20)           179.9091         estimate D2E/DX2                !
 ! D7    D(17,1,6,5)          -179.9844         estimate D2E/DX2                !
 ! D8    D(17,1,6,20)           -0.0766         estimate D2E/DX2                !
 ! D9    D(1,2,3,4)             -0.2525         estimate D2E/DX2                !
 ! D10   D(1,2,3,7)            179.7643         estimate D2E/DX2                !
 ! D11   D(18,2,3,4)           179.9308         estimate D2E/DX2                !
 ! D12   D(18,2,3,7)            -0.0524         estimate D2E/DX2                !
 ! D13   D(2,3,4,5)              0.1839         estimate D2E/DX2                !
 ! D14   D(2,3,4,8)           -179.9227         estimate D2E/DX2                !
 ! D15   D(7,3,4,5)           -179.8326         estimate D2E/DX2                !
 ! D16   D(7,3,4,8)              0.0609         estimate D2E/DX2                !
 ! D17   D(2,3,7,10)          -179.9531         estimate D2E/DX2                !
 ! D18   D(2,3,7,16)            -0.021          estimate D2E/DX2                !
 ! D19   D(4,3,7,10)             0.0639         estimate D2E/DX2                !
 ! D20   D(4,3,7,16)           179.996          estimate D2E/DX2                !
 ! D21   D(3,4,5,6)             -0.0283         estimate D2E/DX2                !
 ! D22   D(3,4,5,19)          -179.98           estimate D2E/DX2                !
 ! D23   D(8,4,5,6)           -179.9193         estimate D2E/DX2                !
 ! D24   D(8,4,5,19)             0.129          estimate D2E/DX2                !
 ! D25   D(3,4,8,9)             -0.0966         estimate D2E/DX2                !
 ! D26   D(3,4,8,21)           179.9991         estimate D2E/DX2                !
 ! D27   D(5,4,8,9)            179.7937         estimate D2E/DX2                !
 ! D28   D(5,4,8,21)            -0.1107         estimate D2E/DX2                !
 ! D29   D(4,5,6,1)             -0.0673         estimate D2E/DX2                !
 ! D30   D(4,5,6,20)          -179.9728         estimate D2E/DX2                !
 ! D31   D(19,5,6,1)           179.8829         estimate D2E/DX2                !
 ! D32   D(19,5,6,20)           -0.0226         estimate D2E/DX2                !
 ! D33   D(3,7,10,9)            -0.1515         estimate D2E/DX2                !
 ! D34   D(3,7,10,11)          179.9003         estimate D2E/DX2                !
 ! D35   D(16,7,10,9)          179.9164         estimate D2E/DX2                !
 ! D36   D(16,7,10,11)          -0.0317         estimate D2E/DX2                !
 ! D37   D(4,8,9,10)             0.0089         estimate D2E/DX2                !
 ! D38   D(4,8,9,15)          -179.9202         estimate D2E/DX2                !
 ! D39   D(21,8,9,10)          179.9133         estimate D2E/DX2                !
 ! D40   D(21,8,9,15)           -0.0159         estimate D2E/DX2                !
 ! D41   D(8,9,10,7)             0.115          estimate D2E/DX2                !
 ! D42   D(8,9,10,11)         -179.9353         estimate D2E/DX2                !
 ! D43   D(15,9,10,7)         -179.9538         estimate D2E/DX2                !
 ! D44   D(15,9,10,11)          -0.0041         estimate D2E/DX2                !
 ! D45   D(8,9,15,14)          179.9107         estimate D2E/DX2                !
 ! D46   D(8,9,15,24)           -0.1009         estimate D2E/DX2                !
 ! D47   D(10,9,15,14)          -0.0189         estimate D2E/DX2                !
 ! D48   D(10,9,15,24)         179.9695         estimate D2E/DX2                !
 ! D49   D(7,10,11,12)          -0.106          estimate D2E/DX2                !
 ! D50   D(7,10,11,13)        -179.9865         estimate D2E/DX2                !
 ! D51   D(9,10,11,12)         179.9455         estimate D2E/DX2                !
 ! D52   D(9,10,11,13)           0.065          estimate D2E/DX2                !
 ! D53   D(10,11,13,14)         -0.1018         estimate D2E/DX2                !
 ! D54   D(10,11,13,22)        179.9569         estimate D2E/DX2                !
 ! D55   D(12,11,13,14)       -179.9786         estimate D2E/DX2                !
 ! D56   D(12,11,13,22)          0.0801         estimate D2E/DX2                !
 ! D57   D(11,13,14,15)          0.078          estimate D2E/DX2                !
 ! D58   D(11,13,14,23)        179.9999         estimate D2E/DX2                !
 ! D59   D(22,13,14,15)       -179.9793         estimate D2E/DX2                !
 ! D60   D(22,13,14,23)         -0.0574         estimate D2E/DX2                !
 ! D61   D(13,14,15,9)          -0.0166         estimate D2E/DX2                !
 ! D62   D(13,14,15,24)        179.9954         estimate D2E/DX2                !
 ! D63   D(23,14,15,9)        -179.9366         estimate D2E/DX2                !
 ! D64   D(23,14,15,24)          0.0754         estimate D2E/DX2                !
 --------------------------------------------------------------------------------
 Trust Radius=3.00D-01 FncErr=1.00D-07 GrdErr=1.00D-06 EigMax=2.50D+02 EigMin=1.00D-04
 Number of steps in this run=    142 maximum allowed number of steps=    144.
 GradGradGradGradGradGradGradGradGradGradGradGradGradGradGradGradGradGrad

 Leave Link  103 at Wed Apr  3 15:27:09 2024, MaxMem= 33554432000 cpu:               0.3 elap:               0.0
 (Enter /apps/gaussian/g16-c01-avx2/g16/l202.exe)
                          Input orientation:                          
 ---------------------------------------------------------------------
 Center     Atomic      Atomic             Coordinates (Angstroms)
 Number     Number       Type             X           Y           Z
 ---------------------------------------------------------------------
      1          6           0       -7.022603   -3.187791   -0.012916
      2          6           0       -5.657980   -3.187791   -0.012916
      3          6           0       -4.925089   -1.956570   -0.012916
      4          6           0       -5.649086   -0.724823   -0.018434
      5          6           0       -7.081326   -0.766314   -0.019734
      6          6           0       -7.745109   -1.958607   -0.016363
      7          6           0       -3.526188   -1.933681   -0.008020
      8          6           0       -4.948709    0.486344   -0.020155
      9          6           0       -3.549768    0.509228   -0.014530
     10          6           0       -2.825799   -0.722475   -0.007110
     11          6           0       -1.393617   -0.680851    0.000000
     12          1           0       -0.847747   -1.636378    0.006601
     13          6           0       -0.729880    0.511504    0.001042
     14          6           0       -1.452363    1.740619   -0.007130
     15          6           0       -2.817006    1.740474   -0.014497
     16          1           0       -2.968485   -2.882918   -0.003701
     17          1           0       -7.588475   -4.131069   -0.010512
     18          1           0       -5.088654   -4.129525   -0.009810
     19          1           0       -7.627139    0.189232   -0.024338
     20          1           0       -8.844507   -1.994772   -0.017794
     21          1           0       -5.506848    1.435325   -0.024423
     22          1           0        0.369526    0.547408    0.007202
     23          1           0       -0.886283    2.683796   -0.006035
     24          1           0       -3.386549    2.682091   -0.020769
 ---------------------------------------------------------------------
                    Distance matrix (angstroms):
                    1          2          3          4          5
     1  C    0.000000
     2  C    1.364623   0.000000
     3  C    2.432174   1.432841   0.000000
     4  C    2.820069   2.462990   1.428777   0.000000
     5  C    2.422199   2.808827   2.462948   1.432841   0.000000
     6  C    1.425805   2.422192   2.820023   2.432188   1.364618
     7  C    3.714530   2.473328   1.399097   2.442978   3.741910
     8  C    4.219047   3.741976   2.443039   1.399091   2.473299
     9  C    5.072330   4.255879   2.823415   2.435166   3.754855
    10  C    4.867338   3.754872   2.435168   2.823311   4.255772
    11  C    6.162013   4.946686   3.754853   4.255736   5.688385
    12  H    6.366797   5.054266   4.089942   4.887168   6.294062
    13  C    7.299544   6.162073   4.867377   5.072225   6.478743
    14  C    7.437529   6.478925   5.072383   4.867342   6.161988
    15  C    6.478800   5.688491   4.255837   3.754781   4.946558
    16  H    4.065576   2.706735   2.164834   3.441397   4.625552
    17  H    1.099996   2.148625   3.438325   3.919669   3.402773
    18  H    2.151054   1.100457   2.179105   3.450530   3.909224
    19  H    3.430726   3.909220   3.450460   2.179042   1.100455
    20  H    2.177763   3.402539   3.919607   3.438530   2.148935
    21  H    4.865269   4.625600   3.441443   2.164834   2.706699
    22  H    8.282251   7.091047   5.856898   6.151660   7.565830
    23  H    8.492939   7.566021   6.151829   5.856887   7.090980
    24  H    6.904815   6.294043   4.887161   4.089761   5.053996
                    6          7          8          9         10
     6  C    0.000000
     7  C    4.219003   0.000000
     8  C    3.714519   2.807175   0.000000
     9  C    4.867350   2.443031   1.399139   0.000000
    10  C    5.072250   1.399130   2.442982   1.428733   0.000000
    11  C    6.478764   2.473359   3.741848   2.462821   1.432804
    12  H    6.904923   2.694930   4.617852   3.450361   2.179013
    13  C    7.437418   3.714613   4.218957   2.819932   2.432210
    14  C    7.299521   4.219151   3.714540   2.432177   2.820134
    15  C    6.161932   3.741978   2.473263   1.432797   2.462976
    16  H    4.865249   1.100955   3.908131   3.441607   2.165152
    17  H    2.178109   4.618517   5.318737   6.151709   5.856757
    18  H    3.430697   2.695002   4.618002   4.887353   4.090050
    19  H    2.151091   4.617881   2.694862   4.089920   4.887164
    20  H    1.099994   5.318679   4.618786   5.856986   6.151723
    21  H    4.065544   3.908131   1.100955   2.165159   3.441573
    22  H    8.492819   4.618725   5.318656   3.919540   3.438446
    23  H    8.282240   5.318853   4.618690   3.438455   3.919746
    24  H    6.366564   4.617901   2.694745   2.178994   3.450463
                   11         12         13         14         15
    11  C    0.000000
    12  H    1.100477   0.000000
    13  C    1.364646   2.151121   0.000000
    14  C    2.422193   3.430723   1.425753   0.000000
    15  C    2.808747   3.909163   2.422128   1.364663   0.000000
    16  H    2.707272   2.459979   4.066138   4.865771   4.625885
    17  H    7.090866   7.187572   8.282146   8.492856   7.565841
    18  H    5.054379   4.919486   6.366960   6.905158   6.294227
    19  H    6.294000   7.020966   6.904831   6.366707   5.054090
    20  H    7.565875   8.004824   8.492876   8.282334   7.091040
    21  H    4.625740   5.580640   4.865544   4.066000   2.707114
    22  H    2.148801   2.500135   1.100009   2.177897   3.402626
    23  H    3.402686   4.320364   2.177927   1.100014   2.148865
    24  H    3.909167   5.009535   3.430716   2.151193   1.100482
                   16         17         18         19         20
    16  H    0.000000
    17  H    4.785628   0.000000
    18  H    2.459509   2.499822   0.000000
    19  H    5.580465   4.320496   5.009569   0.000000
    20  H    5.942780   2.478192   4.320147   2.500380   0.000000
    21  H    5.009086   5.942904   5.580560   2.459346   4.785977
    22  H    4.786395   9.231373   7.187887   8.004745   9.558332
    23  H    5.943389   9.558336   8.005078   7.187651   9.231601
    24  H    5.580716   8.004713   7.021068   4.919041   7.187653
                   21         22         23         24
    21  H    0.000000
    22  H    5.943161   0.000000
    23  H    4.786297   2.478182   0.000000
    24  H    2.459696   4.320388   2.500310   0.000000
 Stoichiometry    C14H10(1+,2)
 Framework group  C1[X(C14H10)]
 Deg. of freedom    66
 Full point group                 C1      NOp   1
 Largest Abelian subgroup         C1      NOp   1
 Largest concise Abelian subgroup C1      NOp   1
                         Standard orientation:                         
 ---------------------------------------------------------------------
 Center     Atomic      Atomic             Coordinates (Angstroms)
 Number     Number       Type             X           Y           Z
 ---------------------------------------------------------------------
      1          6           0        3.649787    0.712811    0.001886
      2          6           0        2.473390    1.404376   -0.002930
      3          6           0        1.217617    0.714398   -0.002230
      4          6           0        1.217524   -0.714379   -0.001906
      5          6           0        2.473241   -1.404448    0.001738
      6          6           0        3.649704   -0.712992    0.004269
      7          6           0        0.000062    1.403622   -0.002210
      8          6           0       -0.000053   -1.403553   -0.002866
      9          6           0       -1.217642   -0.714301   -0.002117
     10          6           0       -1.217550    0.714431   -0.000539
     11          6           0       -2.473295    1.404380    0.001627
     12          1           0       -2.459631    2.504770    0.003752
     13          6           0       -3.649756    0.712865    0.003509
     14          6           0       -3.649817   -0.712886    0.001167
     15          6           0       -2.473316   -1.404366   -0.001384
     16          1           0        0.000341    2.504577   -0.002393
     17          1           0        4.615647    1.239215    0.003770
     18          1           0        2.459849    2.504748   -0.004346
     19          1           0        2.459515   -2.504817    0.001610
     20          1           0        4.615790   -1.238975    0.006622
     21          1           0        0.000173   -2.504508   -0.002632
     22          1           0       -4.615725    1.239096    0.005885
     23          1           0       -4.615811   -1.239083    0.002781
     24          1           0       -2.459523   -2.504760   -0.003133
 ---------------------------------------------------------------------
 Rotational constants (GHZ):           2.1508332           0.4534727           0.3745128
 Leave Link  202 at Wed Apr  3 15:27:10 2024, MaxMem= 33554432000 cpu:               0.5 elap:               0.1
 (Enter /apps/gaussian/g16-c01-avx2/g16/l301.exe)
 Standard basis: def2TZVP (5D, 7F)
 Ernie: Thresh=  0.10000D-02 Tol=  0.10000D-05 Strict=F.
 There are   564 symmetry adapted cartesian basis functions of A   symmetry.
 There are   494 symmetry adapted basis functions of A   symmetry.
   494 basis functions,   794 primitive gaussians,   564 cartesian basis functions
    47 alpha electrons       46 beta electrons
       nuclear repulsion energy       766.4585602365 Hartrees.
 IExCor=  402 DFT=T Ex+Corr=B3LYP ExCW=0 ScaHFX=  0.200000
 ScaDFX=  0.800000  0.720000  1.000000  0.810000 ScalE2=  1.000000  1.000000
 IRadAn=      5 IRanWt=     -1 IRanGd=            0 ICorTp=0 IEmpDi=  4
 NAtoms=   24 NActive=   24 NUniq=   24 SFac= 1.00D+00 NAtFMM=   60 NAOKFM=F Big=F
 Integral buffers will be    131072 words long.
 Raffenetti 2 integral format.
 Two-electron integral symmetry is turned on.
 Leave Link  301 at Wed Apr  3 15:27:10 2024, MaxMem= 33554432000 cpu:               1.5 elap:               0.1
 (Enter /apps/gaussian/g16-c01-avx2/g16/l302.exe)
 NPDir=0 NMtPBC=     1 NCelOv=     1 NCel=       1 NClECP=     1 NCelD=      1
         NCelK=      1 NCelE2=     1 NClLst=     1 CellRange=     0.0.
 One-electron integrals computed using PRISM.
 One-electron integral symmetry used in STVInt
   1 Symmetry operations used in ECPInt.
 ECPInt:  NShTT=   18915 NPrTT=   58308 LenC2=   17605 LenP2D=   40917.
 LDataN:  DoStor=T MaxTD1= 6 Len=  172
 NBasis=   494 RedAO= T EigKep=  5.20D-06  NBF=   494
 NBsUse=   494 1.00D-06 EigRej= -1.00D+00 NBFU=   494
 Precomputing XC quadrature grid using
 IXCGrd= 4 IRadAn=           5 IRanWt=          -1 IRanGd=           0 AccXCQ= 0.00D+00.
 Generated NRdTot=       0 NPtTot=           0 NUsed=           0 NTot=          32
 NSgBfM=   558   558   558   558   558 MxSgAt=    24 MxSgA2=    24.
 Leave Link  302 at Wed Apr  3 15:27:11 2024, MaxMem= 33554432000 cpu:              12.5 elap:               0.4
 (Enter /apps/gaussian/g16-c01-avx2/g16/l303.exe)
 DipDrv:  MaxL=1.
 Leave Link  303 at Wed Apr  3 15:27:12 2024, MaxMem= 33554432000 cpu:               1.6 elap:               0.1
 (Enter /apps/gaussian/g16-c01-avx2/g16/l401.exe)
 ExpMin= 9.52D-02 ExpMax= 1.36D+04 ExpMxC= 4.63D+02 IAcc=3 IRadAn=         5 AccDes= 0.00D+00
 Harris functional with IExCor=  402 and IRadAn=       5 diagonalized for initial guess.
 HarFok:  IExCor=  402 AccDes= 0.00D+00 IRadAn=         5 IDoV= 1 UseB2=F ITyADJ=14
 ICtDFT=  3500011 ScaDFX=  1.000000  1.000000  1.000000  1.000000
 FoFCou: FMM=F IPFlag=           0 FMFlag=      100000 FMFlg1=           0
         NFxFlg=           0 DoJE=T BraDBF=F KetDBF=T FulRan=T
         wScrn=  0.000000 ICntrl=       500 IOpCl=  0 I1Cent=   200000004 NGrid=           0
         NMat0=    1 NMatS0=      1 NMatT0=    0 NMatD0=    1 NMtDS0=    0 NMtDT0=    0
 Petite list used in FoFCou.
 Harris En= -539.468650824838    
 JPrj=0 DoOrth=F DoCkMO=F.
 Initial guess <Sx>= 0.0000 <Sy>= 0.0000 <Sz>= 0.5000 <S**2>= 0.7500 S= 0.5000
 Leave Link  401 at Wed Apr  3 15:27:13 2024, MaxMem= 33554432000 cpu:              36.5 elap:               1.2
 (Enter /apps/gaussian/g16-c01-avx2/g16/l502.exe)
 Integral symmetry usage will be decided dynamically.
 UHF open shell SCF:
 Using DIIS extrapolation, IDIIS=  1040.
 NGot= 33554432000 LenX= 33553772274 LenY= 33553453614
 Requested convergence on RMS density matrix=1.00D-08 within 128 cycles.
 Requested convergence on MAX density matrix=1.00D-06.
 Requested convergence on             energy=1.00D-06.
 No special actions if energy rises.
 Fock matrices will be formed incrementally for  20 cycles.
 Integral accuracy reduced to 1.0D-05 until final iterations.

 Cycle   1  Pass 0  IDiag  1:
 FoFJK:  IHMeth= 1 ICntrl=       0 DoSepK=F KAlg= 0 I1Cent=           0 FoldK=F
 IRaf= 880000000 NMat=       1 IRICut=       1 DoRegI=T DoRafI=F ISym2E= 0 IDoP0=0 IntGTp=1.
 FoFCou: FMM=F IPFlag=           0 FMFlag=      100000 FMFlg1=           0
         NFxFlg=           0 DoJE=F BraDBF=F KetDBF=F FulRan=T
         wScrn=  0.000000 ICntrl=         0 IOpCl=  1 I1Cent=           0 NGrid=           0
         NMat0=    1 NMatS0=      1 NMatT0=    0 NMatD0=    1 NMtDS0=    0 NMtDT0=    0
 Symmetry not used in FoFCou.
 E= -539.237774578317    
 DIIS: error= 2.96D-02 at cycle   1 NSaved=   1.
 NSaved= 1 IEnMin= 1 EnMin= -539.237774578317     IErMin= 1 ErrMin= 2.96D-02
 ErrMax= 2.96D-02  0.00D+00 EMaxC= 1.00D-01 BMatC= 9.19D-01 BMatP= 9.19D-01
 IDIUse=3 WtCom= 7.04D-01 WtEn= 2.96D-01
 Coeff-Com:  0.100D+01
 Coeff-En:   0.100D+01
 Coeff:      0.100D+01
 Gap=     0.136 Goal=   None    Shift=    0.000
 Gap=     0.079 Goal=   None    Shift=    0.000
 GapD=    0.079 DampG=0.500 DampE=0.500 DampFc=0.2500 IDamp=-1.
 Damping current iteration by 2.50D-01
 RMSDP=4.02D-03 MaxDP=1.14D-01              OVMax= 1.69D-01

 Cycle   2  Pass 0  IDiag  1:
 RMSU=  9.96D-04    CP:  9.82D-01
 E= -539.313297950781     Delta-E=       -0.075523372465 Rises=F Damp=T
 DIIS: error= 1.78D-02 at cycle   2 NSaved=   2.
 NSaved= 2 IEnMin= 2 EnMin= -539.313297950781     IErMin= 2 ErrMin= 1.78D-02
 ErrMax= 1.78D-02  0.00D+00 EMaxC= 1.00D-01 BMatC= 3.12D-01 BMatP= 9.19D-01
 IDIUse=3 WtCom= 8.22D-01 WtEn= 1.78D-01
 Coeff-Com: -0.115D+01 0.215D+01
 Coeff-En:   0.000D+00 0.100D+01
 Coeff:     -0.946D+00 0.195D+01
 Gap=     0.141 Goal=   None    Shift=    0.000
 Gap=     0.091 Goal=   None    Shift=    0.000
 RMSDP=3.16D-03 MaxDP=8.94D-02 DE=-7.55D-02 OVMax= 1.63D-01

 Cycle   3  Pass 0  IDiag  1:
 RMSU=  1.52D-03    CP:  9.57D-01  3.00D+00
 E= -539.445362206250     Delta-E=       -0.132064255468 Rises=F Damp=F
 DIIS: error= 1.26D-02 at cycle   3 NSaved=   3.
 NSaved= 3 IEnMin= 3 EnMin= -539.445362206250     IErMin= 3 ErrMin= 1.26D-02
 ErrMax= 1.26D-02  0.00D+00 EMaxC= 1.00D-01 BMatC= 4.62D-02 BMatP= 3.12D-01
 IDIUse=3 WtCom= 8.74D-01 WtEn= 1.26D-01
 Coeff-Com: -0.560D+00 0.992D+00 0.568D+00
 Coeff-En:   0.000D+00 0.000D+00 0.100D+01
 Coeff:     -0.490D+00 0.868D+00 0.622D+00
 Gap=     0.138 Goal=   None    Shift=    0.000
 Gap=     0.083 Goal=   None    Shift=    0.000
 RMSDP=6.47D-04 MaxDP=2.24D-02 DE=-1.32D-01 OVMax= 1.12D-01

 Cycle   4  Pass 0  IDiag  1:
 RMSU=  6.10D-04    CP:  9.64D-01  3.00D+00  1.14D+00
 E= -539.449434091800     Delta-E=       -0.004071885550 Rises=F Damp=F
 DIIS: error= 1.04D-02 at cycle   4 NSaved=   4.
 NSaved= 4 IEnMin= 4 EnMin= -539.449434091800     IErMin= 4 ErrMin= 1.04D-02
 ErrMax= 1.04D-02  0.00D+00 EMaxC= 1.00D-01 BMatC= 2.89D-02 BMatP= 4.62D-02
 IDIUse=3 WtCom= 8.96D-01 WtEn= 1.04D-01
 Coeff-Com: -0.161D+00 0.272D+00 0.437D+00 0.453D+00
 Coeff-En:   0.000D+00 0.000D+00 0.424D+00 0.576D+00
 Coeff:     -0.144D+00 0.243D+00 0.435D+00 0.466D+00
 Gap=     0.137 Goal=   None    Shift=    0.000
 Gap=     0.086 Goal=   None    Shift=    0.000
 RMSDP=8.22D-04 MaxDP=3.88D-02 DE=-4.07D-03 OVMax= 5.99D-02

 Cycle   5  Pass 0  IDiag  1:
 RMSU=  5.44D-04    CP:  9.69D-01  3.00D+00  1.54D+00  1.06D+00
 E= -539.457703038738     Delta-E=       -0.008268946938 Rises=F Damp=F
 DIIS: error= 1.55D-03 at cycle   5 NSaved=   5.
 NSaved= 5 IEnMin= 5 EnMin= -539.457703038738     IErMin= 5 ErrMin= 1.55D-03
 ErrMax= 1.55D-03  0.00D+00 EMaxC= 1.00D-01 BMatC= 1.07D-03 BMatP= 2.89D-02
 IDIUse=3 WtCom= 9.84D-01 WtEn= 1.55D-02
 Coeff-Com: -0.344D-01 0.543D-01 0.172D+00 0.245D+00 0.563D+00
 Coeff-En:   0.000D+00 0.000D+00 0.000D+00 0.000D+00 0.100D+01
 Coeff:     -0.339D-01 0.535D-01 0.169D+00 0.241D+00 0.570D+00
 Gap=     0.135 Goal=   None    Shift=    0.000
 Gap=     0.088 Goal=   None    Shift=    0.000
 RMSDP=3.30D-04 MaxDP=2.49D-02 DE=-8.27D-03 OVMax= 7.23D-03

 Cycle   6  Pass 0  IDiag  1:
 RMSU=  1.96D-04    CP:  9.71D-01  3.00D+00  1.59D+00  1.33D+00  1.36D+00
 E= -539.457971155845     Delta-E=       -0.000268117107 Rises=F Damp=F
 DIIS: error= 6.43D-04 at cycle   6 NSaved=   6.
 NSaved= 6 IEnMin= 6 EnMin= -539.457971155845     IErMin= 6 ErrMin= 6.43D-04
 ErrMax= 6.43D-04  0.00D+00 EMaxC= 1.00D-01 BMatC= 1.45D-04 BMatP= 1.07D-03
 IDIUse=3 WtCom= 9.94D-01 WtEn= 6.43D-03
 Coeff-Com:  0.158D-02-0.473D-02 0.428D-01 0.817D-01 0.316D+00 0.563D+00
 Coeff-En:   0.000D+00 0.000D+00 0.000D+00 0.000D+00 0.244D-01 0.976D+00
 Coeff:      0.157D-02-0.470D-02 0.425D-01 0.811D-01 0.314D+00 0.565D+00
 Gap=     0.135 Goal=   None    Shift=    0.000
 Gap=     0.088 Goal=   None    Shift=    0.000
 RMSDP=3.59D-04 MaxDP=2.45D-02 DE=-2.68D-04 OVMax= 2.32D-03

 Cycle   7  Pass 0  IDiag  1:
 RMSU=  8.68D-05    CP:  9.74D-01  3.00D+00  1.73D+00  1.47D+00  1.82D+00
                    CP:  1.42D+00
 E= -539.458004323612     Delta-E=       -0.000033167766 Rises=F Damp=F
 DIIS: error= 1.81D-04 at cycle   7 NSaved=   7.
 NSaved= 7 IEnMin= 7 EnMin= -539.458004323612     IErMin= 7 ErrMin= 1.81D-04
 ErrMax= 1.81D-04  0.00D+00 EMaxC= 1.00D-01 BMatC= 6.44D-06 BMatP= 1.45D-04
 IDIUse=3 WtCom= 9.98D-01 WtEn= 1.81D-03
 Coeff-Com:  0.535D-02-0.830D-02-0.239D-01-0.342D-01-0.850D-01 0.157D-01
 Coeff-Com:  0.113D+01
 Coeff-En:   0.000D+00 0.000D+00 0.000D+00 0.000D+00 0.000D+00 0.000D+00
 Coeff-En:   0.100D+01
 Coeff:      0.534D-02-0.828D-02-0.239D-01-0.341D-01-0.848D-01 0.157D-01
 Coeff:      0.113D+01
 Gap=     0.135 Goal=   None    Shift=    0.000
 Gap=     0.088 Goal=   None    Shift=    0.000
 RMSDP=4.42D-04 MaxDP=3.11D-02 DE=-3.32D-05 OVMax= 1.64D-03

 Cycle   8  Pass 0  IDiag  1:
 RMSU=  1.01D-04    CP:  9.80D-01  3.00D+00  1.90D+00  1.67D+00  2.32D+00
                    CP:  1.94D+00  2.58D+00
 E= -539.457998271012     Delta-E=        0.000006052599 Rises=F Damp=F
 DIIS: error= 4.60D-05 at cycle   8 NSaved=   8.
 NSaved= 8 IEnMin= 7 EnMin= -539.458004323612     IErMin= 8 ErrMin= 4.60D-05
 ErrMax= 4.60D-05  0.00D+00 EMaxC= 1.00D-01 BMatC= 2.21D-06 BMatP= 6.44D-06
 IDIUse=1 WtCom= 1.00D+00 WtEn= 0.00D+00
 Coeff-Com:  0.174D-02-0.247D-02-0.148D-01-0.234D-01-0.704D-01-0.613D-01
 Coeff-Com:  0.453D+00 0.718D+00
 Coeff:      0.174D-02-0.247D-02-0.148D-01-0.234D-01-0.704D-01-0.613D-01
 Coeff:      0.453D+00 0.718D+00
 Gap=     0.135 Goal=   None    Shift=    0.000
 Gap=     0.088 Goal=   None    Shift=    0.000
 RMSDP=1.36D-04 MaxDP=3.78D-03 DE= 6.05D-06 OVMax= 5.75D-04

 Cycle   9  Pass 0  IDiag  1:
 RMSU=  4.96D-05    CP:  9.81D-01  3.00D+00  1.88D+00  1.73D+00  2.29D+00
                    CP:  2.20D+00  2.83D+00  2.02D+00
 E= -539.457994037313     Delta-E=        0.000004233699 Rises=F Damp=F
 DIIS: error= 2.95D-05 at cycle   9 NSaved=   9.
 NSaved= 9 IEnMin= 7 EnMin= -539.458004323612     IErMin= 9 ErrMin= 2.95D-05
 ErrMax= 2.95D-05  0.00D+00 EMaxC= 1.00D-01 BMatC= 9.04D-07 BMatP= 2.21D-06
 IDIUse=1 WtCom= 1.00D+00 WtEn= 0.00D+00
 Coeff-Com: -0.503D-03 0.877D-03-0.224D-02-0.416D-02-0.167D-01-0.358D-01
 Coeff-Com: -0.370D-01 0.409D+00 0.686D+00
 Coeff:     -0.503D-03 0.877D-03-0.224D-02-0.416D-02-0.167D-01-0.358D-01
 Coeff:     -0.370D-01 0.409D+00 0.686D+00
 Gap=     0.135 Goal=   None    Shift=    0.000
 Gap=     0.088 Goal=   None    Shift=    0.000
 RMSDP=1.21D-04 MaxDP=4.40D-03 DE= 4.23D-06 OVMax= 3.17D-04

 Cycle  10  Pass 0  IDiag  1:
 RMSU=  5.23D-05    CP:  9.82D-01  3.00D+00  1.88D+00  1.74D+00  2.27D+00
                    CP:  2.17D+00  3.00D+00  2.63D+00  2.71D+00
 E= -539.457992811420     Delta-E=        0.000001225894 Rises=F Damp=F
 DIIS: error= 3.43D-05 at cycle  10 NSaved=  10.
 NSaved=10 IEnMin= 7 EnMin= -539.458004323612     IErMin= 9 ErrMin= 2.95D-05
 ErrMax= 3.43D-05  0.00D+00 EMaxC= 1.00D-01 BMatC= 4.16D-07 BMatP= 9.04D-07
 IDIUse=1 WtCom= 1.00D+00 WtEn= 0.00D+00
 Coeff-Com: -0.160D-03 0.289D-03-0.146D-02-0.248D-02-0.945D-02-0.169D-01
 Coeff-Com: -0.113D-01 0.181D+00 0.393D+00 0.467D+00
 Coeff:     -0.160D-03 0.289D-03-0.146D-02-0.248D-02-0.945D-02-0.169D-01
 Coeff:     -0.113D-01 0.181D+00 0.393D+00 0.467D+00
 Gap=     0.135 Goal=   None    Shift=    0.000
 Gap=     0.088 Goal=   None    Shift=    0.000
 RMSDP=2.03D-04 MaxDP=1.09D-02 DE= 1.23D-06 OVMax= 7.66D-05

 Cycle  11  Pass 0  IDiag  1:
 RMSU=  5.56D-05    CP:  9.84D-01  3.00D+00  1.98D+00  1.77D+00  2.45D+00
                    CP:  2.09D+00  3.00D+00  2.76D+00  3.00D+00  2.46D+00
 E= -539.457991319958     Delta-E=        0.000001491461 Rises=F Damp=F
 DIIS: error= 4.56D-05 at cycle  11 NSaved=  11.
 NSaved=11 IEnMin= 7 EnMin= -539.458004323612     IErMin= 9 ErrMin= 2.95D-05
 ErrMax= 4.56D-05  0.00D+00 EMaxC= 1.00D-01 BMatC= 6.22D-07 BMatP= 4.16D-07
 IDIUse=1 WtCom= 1.00D+00 WtEn= 0.00D+00
 Coeff-Com: -0.141D-03 0.260D-03-0.157D-02-0.265D-02-0.994D-02-0.172D-01
 Coeff-Com: -0.688D-02 0.185D+00 0.395D+00 0.531D+00-0.722D-01
 Coeff:     -0.141D-03 0.260D-03-0.157D-02-0.265D-02-0.994D-02-0.172D-01
 Coeff:     -0.688D-02 0.185D+00 0.395D+00 0.531D+00-0.722D-01
 Gap=     0.135 Goal=   None    Shift=    0.000
 Gap=     0.088 Goal=   None    Shift=    0.000
 RMSDP=1.81D-05 MaxDP=9.59D-04 DE= 1.49D-06 OVMax= 8.38D-06

 Cycle  12  Pass 0  IDiag  1:
 RMSU=  9.41D-06    CP:  9.84D-01  3.00D+00  1.98D+00  1.76D+00  2.45D+00
                    CP:  2.05D+00  3.00D+00  2.71D+00  3.00D+00  2.40D+00
                    CP:  8.21D-01
 E= -539.457991822652     Delta-E=       -0.000000502694 Rises=F Damp=F
 DIIS: error= 4.16D-05 at cycle  12 NSaved=  12.
 NSaved=12 IEnMin= 7 EnMin= -539.458004323612     IErMin= 9 ErrMin= 2.95D-05
 ErrMax= 4.16D-05  0.00D+00 EMaxC= 1.00D-01 BMatC= 6.57D-07 BMatP= 4.16D-07
 IDIUse=1 WtCom= 1.00D+00 WtEn= 0.00D+00
 Coeff-Com: -0.116D-03 0.223D-03-0.174D-02-0.292D-02-0.107D-01-0.176D-01
 Coeff-Com: -0.440D-03 0.188D+00 0.394D+00 0.530D+00 0.588D+00-0.667D+00
 Coeff:     -0.116D-03 0.223D-03-0.174D-02-0.292D-02-0.107D-01-0.176D-01
 Coeff:     -0.440D-03 0.188D+00 0.394D+00 0.530D+00 0.588D+00-0.667D+00
 Gap=     0.135 Goal=   None    Shift=    0.000
 Gap=     0.088 Goal=   None    Shift=    0.000
 RMSDP=6.56D-05 MaxDP=3.32D-03 DE=-5.03D-07 OVMax= 2.81D-05

 Cycle  13  Pass 0  IDiag  1:
 RMSU=  1.61D-05    CP:  9.84D-01  3.00D+00  1.95D+00  1.76D+00  2.38D+00
                    CP:  2.11D+00  3.00D+00  2.84D+00  3.00D+00  2.34D+00
                    CP:  1.01D+00 -1.44D+00
 E= -539.457995803892     Delta-E=       -0.000003981240 Rises=F Damp=F
 DIIS: error= 4.59D-05 at cycle  13 NSaved=  13.
 NSaved=13 IEnMin= 7 EnMin= -539.458004323612     IErMin= 9 ErrMin= 2.95D-05
 ErrMax= 4.59D-05  0.00D+00 EMaxC= 1.00D-01 BMatC= 6.10D-07 BMatP= 4.16D-07
 IDIUse=1 WtCom= 1.00D+00 WtEn= 0.00D+00
 Coeff-Com: -0.116D-03 0.224D-03-0.182D-02-0.304D-02-0.111D-01-0.182D-01
 Coeff-Com:  0.820D-03 0.193D+00 0.395D+00 0.514D+00 0.300D+00-0.572D+00
 Coeff-Com:  0.204D+00
 Coeff:     -0.116D-03 0.224D-03-0.182D-02-0.304D-02-0.111D-01-0.182D-01
 Coeff:      0.820D-03 0.193D+00 0.395D+00 0.514D+00 0.300D+00-0.572D+00
 Coeff:      0.204D+00
 Gap=     0.135 Goal=   None    Shift=    0.000
 Gap=     0.088 Goal=   None    Shift=    0.000
 RMSDP=1.73D-05 MaxDP=9.57D-04 DE=-3.98D-06 OVMax= 7.65D-06

 Cycle  14  Pass 0  IDiag  1:
 RMSU=  8.23D-06    CP:  9.83D-01  3.00D+00  1.95D+00  1.75D+00  2.37D+00
                    CP:  2.09D+00  3.00D+00  2.90D+00  3.00D+00  2.30D+00
                    CP:  9.58D-01 -1.63D+00  1.49D+00
 E= -539.457996745556     Delta-E=       -0.000000941664 Rises=F Damp=F
 DIIS: error= 4.53D-05 at cycle  14 NSaved=  14.
 NSaved=14 IEnMin= 7 EnMin= -539.458004323612     IErMin= 9 ErrMin= 2.95D-05
 ErrMax= 4.53D-05  0.00D+00 EMaxC= 1.00D-01 BMatC= 5.69D-07 BMatP= 4.16D-07
 IDIUse=1 WtCom= 1.00D+00 WtEn= 0.00D+00
 Coeff-Com: -0.138D-03 0.260D-03-0.175D-02-0.296D-02-0.110D-01-0.186D-01
 Coeff-Com: -0.290D-02 0.195D+00 0.396D+00 0.449D+00 0.404D+00-0.481D+00
 Coeff-Com: -0.460D+00 0.534D+00
 Coeff:     -0.138D-03 0.260D-03-0.175D-02-0.296D-02-0.110D-01-0.186D-01
 Coeff:     -0.290D-02 0.195D+00 0.396D+00 0.449D+00 0.404D+00-0.481D+00
 Coeff:     -0.460D+00 0.534D+00
 Gap=     0.135 Goal=   None    Shift=    0.000
 Gap=     0.088 Goal=   None    Shift=    0.000
 RMSDP=6.21D-05 MaxDP=3.05D-03 DE=-9.42D-07 OVMax= 2.68D-05

 Cycle  15  Pass 0  IDiag  1:
 RMSU=  1.39D-05    CP:  9.84D-01  3.00D+00  1.98D+00  1.74D+00  2.44D+00
                    CP:  2.07D+00  3.00D+00  2.88D+00  3.00D+00  2.55D+00
                    CP:  1.12D+00 -8.23D-01  1.47D+00  2.30D+00
 E= -539.457996196839     Delta-E=        0.000000548717 Rises=F Damp=F
 DIIS: error= 4.77D-05 at cycle  15 NSaved=  15.
 NSaved=15 IEnMin= 7 EnMin= -539.458004323612     IErMin= 9 ErrMin= 2.95D-05
 ErrMax= 4.77D-05  0.00D+00 EMaxC= 1.00D-01 BMatC= 6.27D-07 BMatP= 4.16D-07
 IDIUse=1 WtCom= 1.00D+00 WtEn= 0.00D+00
 Coeff-Com: -0.138D-03 0.260D-03-0.174D-02-0.295D-02-0.110D-01-0.186D-01
 Coeff-Com: -0.324D-02 0.195D+00 0.396D+00 0.454D+00 0.430D+00-0.516D+00
 Coeff-Com: -0.409D+00 0.456D+00 0.323D-01
 Coeff:     -0.138D-03 0.260D-03-0.174D-02-0.295D-02-0.110D-01-0.186D-01
 Coeff:     -0.324D-02 0.195D+00 0.396D+00 0.454D+00 0.430D+00-0.516D+00
 Coeff:     -0.409D+00 0.456D+00 0.323D-01
 Gap=     0.135 Goal=   None    Shift=    0.000
 Gap=     0.088 Goal=   None    Shift=    0.000
 RMSDP=2.25D-06 MaxDP=1.20D-04 DE= 5.49D-07 OVMax= 8.49D-07

 Initial convergence to 1.0D-05 achieved.  Increase integral accuracy.
 Cycle  16  Pass 1  IDiag  1:
 E= -539.457855313501     Delta-E=        0.000140883337 Rises=F Damp=F
 DIIS: error= 2.22D-03 at cycle   1 NSaved=   1.
 NSaved= 1 IEnMin= 1 EnMin= -539.457855313501     IErMin= 1 ErrMin= 2.22D-03
 ErrMax= 2.22D-03  0.00D+00 EMaxC= 1.00D-01 BMatC= 3.53D-04 BMatP= 3.53D-04
 IDIUse=3 WtCom= 9.78D-01 WtEn= 2.22D-02
 Coeff-Com:  0.100D+01
 Coeff-En:   0.100D+01
 Coeff:      0.100D+01
 Gap=     0.135 Goal=   None    Shift=    0.000
 Gap=     0.089 Goal=   None    Shift=    0.000
 RMSDP=2.25D-06 MaxDP=1.20D-04 DE= 1.41D-04 OVMax= 4.19D-03

 Cycle  17  Pass 1  IDiag  1:
 RMSU=  4.47D-03    CP:  5.66D-01
 E= -539.457938096183     Delta-E=       -0.000082782681 Rises=F Damp=F
 DIIS: error= 3.56D-05 at cycle   2 NSaved=   2.
 NSaved= 2 IEnMin= 2 EnMin= -539.457938096183     IErMin= 2 ErrMin= 3.56D-05
 ErrMax= 3.56D-05  0.00D+00 EMaxC= 1.00D-01 BMatC= 7.45D-08 BMatP= 3.53D-04
 IDIUse=1 WtCom= 1.00D+00 WtEn= 0.00D+00
 Coeff-Com: -0.977D-02 0.101D+01
 Coeff:     -0.977D-02 0.101D+01
 Gap=     0.135 Goal=   None    Shift=    0.000
 Gap=     0.088 Goal=   None    Shift=    0.000
 RMSDP=5.98D-05 MaxDP=1.71D-03 DE=-8.28D-05 OVMax= 1.24D-04

 Cycle  18  Pass 1  IDiag  1:
 RMSU=  5.09D-05    CP:  5.64D-01  1.01D+00
 E= -539.457938110661     Delta-E=       -0.000000014479 Rises=F Damp=F
 DIIS: error= 1.16D-05 at cycle   3 NSaved=   3.
 NSaved= 3 IEnMin= 3 EnMin= -539.457938110661     IErMin= 3 ErrMin= 1.16D-05
 ErrMax= 1.16D-05  0.00D+00 EMaxC= 1.00D-01 BMatC= 5.50D-08 BMatP= 7.45D-08
 IDIUse=1 WtCom= 1.00D+00 WtEn= 0.00D+00
 Coeff-Com: -0.540D-02 0.549D+00 0.457D+00
 Coeff:     -0.540D-02 0.549D+00 0.457D+00
 Gap=     0.135 Goal=   None    Shift=    0.000
 Gap=     0.089 Goal=   None    Shift=    0.000
 RMSDP=4.51D-07 MaxDP=1.17D-05 DE=-1.45D-08 OVMax= 9.09D-05

 Cycle  19  Pass 1  IDiag  1:
 RMSU=  2.57D-07    CP:  5.64D-01  1.01D+00  1.01D+00
 E= -539.457938122674     Delta-E=       -0.000000012012 Rises=F Damp=F
 DIIS: error= 5.73D-06 at cycle   4 NSaved=   4.
 NSaved= 4 IEnMin= 4 EnMin= -539.457938122674     IErMin= 4 ErrMin= 5.73D-06
 ErrMax= 5.73D-06  0.00D+00 EMaxC= 1.00D-01 BMatC= 6.79D-09 BMatP= 5.50D-08
 IDIUse=1 WtCom= 1.00D+00 WtEn= 0.00D+00
 Coeff-Com: -0.629D-03 0.602D-01 0.257D+00 0.684D+00
 Coeff:     -0.629D-03 0.602D-01 0.257D+00 0.684D+00
 Gap=     0.135 Goal=   None    Shift=    0.000
 Gap=     0.089 Goal=   None    Shift=    0.000
 RMSDP=4.30D-07 MaxDP=1.59D-05 DE=-1.20D-08 OVMax= 4.32D-05

 Cycle  20  Pass 1  IDiag  1:
 RMSU=  1.96D-07    CP:  5.64D-01  1.01D+00  1.01D+00  1.30D+00
 E= -539.457938123978     Delta-E=       -0.000000001304 Rises=F Damp=F
 DIIS: error= 2.67D-06 at cycle   5 NSaved=   5.
 NSaved= 5 IEnMin= 5 EnMin= -539.457938123978     IErMin= 5 ErrMin= 2.67D-06
 ErrMax= 2.67D-06  0.00D+00 EMaxC= 1.00D-01 BMatC= 2.37D-09 BMatP= 6.79D-09
 IDIUse=1 WtCom= 1.00D+00 WtEn= 0.00D+00
 Coeff-Com:  0.679D-04-0.946D-02 0.133D+00 0.481D+00 0.396D+00
 Coeff:      0.679D-04-0.946D-02 0.133D+00 0.481D+00 0.396D+00
 Gap=     0.135 Goal=   None    Shift=    0.000
 Gap=     0.089 Goal=   None    Shift=    0.000
 RMSDP=7.41D-08 MaxDP=1.96D-06 DE=-1.30D-09 OVMax= 1.07D-05

 Cycle  21  Pass 1  IDiag  1:
 RMSU=  3.78D-08    CP:  5.64D-01  1.01D+00  1.01D+00  1.40D+00  1.03D+00
 E= -539.457938124656     Delta-E=       -0.000000000678 Rises=F Damp=F
 DIIS: error= 2.15D-07 at cycle   6 NSaved=   6.
 NSaved= 6 IEnMin= 6 EnMin= -539.457938124656     IErMin= 6 ErrMin= 2.15D-07
 ErrMax= 2.15D-07  0.00D+00 EMaxC= 1.00D-01 BMatC= 3.19D-11 BMatP= 2.37D-09
 IDIUse=1 WtCom= 1.00D+00 WtEn= 0.00D+00
 Coeff-Com:  0.501D-04-0.556D-02 0.132D-01 0.851D-01 0.994D-01 0.808D+00
 Coeff:      0.501D-04-0.556D-02 0.132D-01 0.851D-01 0.994D-01 0.808D+00
 Gap=     0.135 Goal=   None    Shift=    0.000
 Gap=     0.089 Goal=   None    Shift=    0.000
 RMSDP=1.10D-08 MaxDP=4.13D-07 DE=-6.78D-10 OVMax= 2.64D-06

 Cycle  22  Pass 1  IDiag  1:
 RMSU=  8.82D-09    CP:  5.64D-01  1.01D+00  1.01D+00  1.41D+00  1.06D+00
                    CP:  1.02D+00
 E= -539.457938124667     Delta-E=       -0.000000000011 Rises=F Damp=F
 DIIS: error= 1.73D-07 at cycle   7 NSaved=   7.
 NSaved= 7 IEnMin= 7 EnMin= -539.457938124667     IErMin= 7 ErrMin= 1.73D-07
 ErrMax= 1.73D-07  0.00D+00 EMaxC= 1.00D-01 BMatC= 1.21D-11 BMatP= 3.19D-11
 IDIUse=1 WtCom= 1.00D+00 WtEn= 0.00D+00
 Coeff-Com:  0.371D-05 0.293D-03-0.422D-01-0.119D+00-0.895D-01 0.366D+00
 Coeff-Com:  0.884D+00
 Coeff:      0.371D-05 0.293D-03-0.422D-01-0.119D+00-0.895D-01 0.366D+00
 Coeff:      0.884D+00
 Gap=     0.135 Goal=   None    Shift=    0.000
 Gap=     0.089 Goal=   None    Shift=    0.000
 RMSDP=7.04D-09 MaxDP=4.03D-07 DE=-1.09D-11 OVMax= 2.40D-06

 SCF Done:  E(UB3LYP) =  -539.457938125     A.U. after   22 cycles
            NFock= 22  Conv=0.70D-08     -V/T= 2.0057
 <Sx>= 0.0000 <Sy>= 0.0000 <Sz>= 0.5000 <S**2>= 0.7631 S= 0.5065
 <L.S>=  0.00000000000    
 KE= 5.363831994455D+02 PE=-2.768630451204D+03 EE= 9.263307533971D+02
 Annihilation of the first spin contaminant:
 S**2 before annihilation     0.7631,   after     0.7501
 Leave Link  502 at Wed Apr  3 15:29:04 2024, MaxMem= 33554432000 cpu:            3499.5 elap:             110.2
 (Enter /apps/gaussian/g16-c01-avx2/g16/l601.exe)
 Copying SCF densities to generalized density rwf, IOpCl= 1 IROHF=0.

 **********************************************************************

            Population analysis using the SCF Density.

 **********************************************************************

 Orbital symmetries:
 Alpha Orbitals:
       Occupied  (A) (A) (A) (A) (A) (A) (A) (A) (A) (A) (A) (A)
                 (A) (A) (A) (A) (A) (A) (A) (A) (A) (A) (A) (A)
                 (A) (A) (A) (A) (A) (A) (A) (A) (A) (A) (A) (A)
                 (A) (A) (A) (A) (A) (A) (A) (A) (A) (A) (A)
       Virtual   (A) (A) (A) (A) (A) (A) (A) (A) (A) (A) (A) (A)
                 (A) (A) (A) (A) (A) (A) (A) (A) (A) (A) (A) (A)
                 (A) (A) (A) (A) (A) (A) (A) (A) (A) (A) (A) (A)
                 (A) (A) (A) (A) (A) (A) (A) (A) (A) (A) (A) (A)
                 (A) (A) (A) (A) (A) (A) (A) (A) (A) (A) (A) (A)
                 (A) (A) (A) (A) (A) (A) (A) (A) (A) (A) (A) (A)
                 (A) (A) (A) (A) (A) (A) (A) (A) (A) (A) (A) (A)
                 (A) (A) (A) (A) (A) (A) (A) (A) (A) (A) (A) (A)
                 (A) (A) (A) (A) (A) (A) (A) (A) (A) (A) (A) (A)
                 (A) (A) (A) (A) (A) (A) (A) (A) (A) (A) (A) (A)
                 (A) (A) (A) (A) (A) (A) (A) (A) (A) (A) (A) (A)
                 (A) (A) (A) (A) (A) (A) (A) (A) (A) (A) (A) (A)
                 (A) (A) (A) (A) (A) (A) (A) (A) (A) (A) (A) (A)
                 (A) (A) (A) (A) (A) (A) (A) (A) (A) (A) (A) (A)
                 (A) (A) (A) (A) (A) (A) (A) (A) (A) (A) (A) (A)
                 (A) (A) (A) (A) (A) (A) (A) (A) (A) (A) (A) (A)
                 (A) (A) (A) (A) (A) (A) (A) (A) (A) (A) (A) (A)
                 (A) (A) (A) (A) (A) (A) (A) (A) (A) (A) (A) (A)
                 (A) (A) (A) (A) (A) (A) (A) (A) (A) (A) (A) (A)
                 (A) (A) (A) (A) (A) (A) (A) (A) (A) (A) (A) (A)
                 (A) (A) (A) (A) (A) (A) (A) (A) (A) (A) (A) (A)
                 (A) (A) (A) (A) (A) (A) (A) (A) (A) (A) (A) (A)
                 (A) (A) (A) (A) (A) (A) (A) (A) (A) (A) (A) (A)
                 (A) (A) (A) (A) (A) (A) (A) (A) (A) (A) (A) (A)
                 (A) (A) (A) (A) (A) (A) (A) (A) (A) (A) (A) (A)
                 (A) (A) (A) (A) (A) (A) (A) (A) (A) (A) (A) (A)
                 (A) (A) (A) (A) (A) (A) (A) (A) (A) (A) (A) (A)
                 (A) (A) (A) (A) (A) (A) (A) (A) (A) (A) (A) (A)
                 (A) (A) (A) (A) (A) (A) (A) (A) (A) (A) (A) (A)
                 (A) (A) (A) (A) (A) (A) (A) (A) (A) (A) (A) (A)
                 (A) (A) (A) (A) (A) (A) (A) (A) (A) (A) (A) (A)
                 (A) (A) (A) (A) (A) (A) (A) (A) (A) (A) (A) (A)
                 (A) (A) (A) (A) (A) (A) (A) (A) (A) (A) (A) (A)
                 (A) (A) (A) (A) (A) (A) (A) (A) (A) (A) (A) (A)
                 (A) (A) (A) (A) (A) (A) (A) (A) (A) (A) (A) (A)
                 (A) (A) (A) (A) (A) (A) (A) (A) (A) (A) (A) (A)
                 (A) (A) (A) (A) (A) (A) (A) (A) (A) (A) (A) (A)
                 (A) (A) (A)
 Beta  Orbitals:
       Occupied  (A) (A) (A) (A) (A) (A) (A) (A) (A) (A) (A) (A)
                 (A) (A) (A) (A) (A) (A) (A) (A) (A) (A) (A) (A)
                 (A) (A) (A) (A) (A) (A) (A) (A) (A) (A) (A) (A)
                 (A) (A) (A) (A) (A) (A) (A) (A) (A) (A)
       Virtual   (A) (A) (A) (A) (A) (A) (A) (A) (A) (A) (A) (A)
                 (A) (A) (A) (A) (A) (A) (A) (A) (A) (A) (A) (A)
                 (A) (A) (A) (A) (A) (A) (A) (A) (A) (A) (A) (A)
                 (A) (A) (A) (A) (A) (A) (A) (A) (A) (A) (A) (A)
                 (A) (A) (A) (A) (A) (A) (A) (A) (A) (A) (A) (A)
                 (A) (A) (A) (A) (A) (A) (A) (A) (A) (A) (A) (A)
                 (A) (A) (A) (A) (A) (A) (A) (A) (A) (A) (A) (A)
                 (A) (A) (A) (A) (A) (A) (A) (A) (A) (A) (A) (A)
                 (A) (A) (A) (A) (A) (A) (A) (A) (A) (A) (A) (A)
                 (A) (A) (A) (A) (A) (A) (A) (A) (A) (A) (A) (A)
                 (A) (A) (A) (A) (A) (A) (A) (A) (A) (A) (A) (A)
                 (A) (A) (A) (A) (A) (A) (A) (A) (A) (A) (A) (A)
                 (A) (A) (A) (A) (A) (A) (A) (A) (A) (A) (A) (A)
                 (A) (A) (A) (A) (A) (A) (A) (A) (A) (A) (A) (A)
                 (A) (A) (A) (A) (A) (A) (A) (A) (A) (A) (A) (A)
                 (A) (A) (A) (A) (A) (A) (A) (A) (A) (A) (A) (A)
                 (A) (A) (A) (A) (A) (A) (A) (A) (A) (A) (A) (A)
                 (A) (A) (A) (A) (A) (A) (A) (A) (A) (A) (A) (A)
                 (A) (A) (A) (A) (A) (A) (A) (A) (A) (A) (A) (A)
                 (A) (A) (A) (A) (A) (A) (A) (A) (A) (A) (A) (A)
                 (A) (A) (A) (A) (A) (A) (A) (A) (A) (A) (A) (A)
                 (A) (A) (A) (A) (A) (A) (A) (A) (A) (A) (A) (A)
                 (A) (A) (A) (A) (A) (A) (A) (A) (A) (A) (A) (A)
                 (A) (A) (A) (A) (A) (A) (A) (A) (A) (A) (A) (A)
                 (A) (A) (A) (A) (A) (A) (A) (A) (A) (A) (A) (A)
                 (A) (A) (A) (A) (A) (A) (A) (A) (A) (A) (A) (A)
                 (A) (A) (A) (A) (A) (A) (A) (A) (A) (A) (A) (A)
                 (A) (A) (A) (A) (A) (A) (A) (A) (A) (A) (A) (A)
                 (A) (A) (A) (A) (A) (A) (A) (A) (A) (A) (A) (A)
                 (A) (A) (A) (A) (A) (A) (A) (A) (A) (A) (A) (A)
                 (A) (A) (A) (A) (A) (A) (A) (A) (A) (A) (A) (A)
                 (A) (A) (A) (A) (A) (A) (A) (A) (A) (A) (A) (A)
                 (A) (A) (A) (A) (A) (A) (A) (A) (A) (A) (A) (A)
                 (A) (A) (A) (A) (A) (A) (A) (A) (A) (A) (A) (A)
                 (A) (A) (A) (A) (A) (A) (A) (A) (A) (A) (A) (A)
                 (A) (A) (A) (A) (A) (A) (A) (A) (A) (A) (A) (A)
                 (A) (A) (A) (A) (A) (A) (A) (A) (A) (A) (A) (A)
                 (A) (A) (A) (A)
 The electronic state is 2-A.
 Alpha  occ. eigenvalues --  -10.36845 -10.36842 -10.35454 -10.35450 -10.35413
 Alpha  occ. eigenvalues --  -10.35412 -10.35011 -10.35011 -10.35009 -10.35008
 Alpha  occ. eigenvalues --  -10.34319 -10.34318 -10.34275 -10.34275  -1.05738
 Alpha  occ. eigenvalues --   -1.02009  -0.97316  -0.95918  -0.92025  -0.90602
 Alpha  occ. eigenvalues --   -0.87626  -0.81099  -0.78437  -0.77073  -0.75518
 Alpha  occ. eigenvalues --   -0.70137  -0.68756  -0.66993  -0.62682  -0.62424
 Alpha  occ. eigenvalues --   -0.61842  -0.61378  -0.58614  -0.58019  -0.57793
 Alpha  occ. eigenvalues --   -0.57726  -0.55343  -0.53814  -0.53307  -0.50761
 Alpha  occ. eigenvalues --   -0.50291  -0.49376  -0.47905  -0.47736  -0.43054
 Alpha  occ. eigenvalues --   -0.40931  -0.37751
 Alpha virt. eigenvalues --   -0.24204  -0.18389  -0.17007  -0.14811  -0.10789
 Alpha virt. eigenvalues --   -0.08128  -0.08116  -0.07564  -0.05280  -0.04664
 Alpha virt. eigenvalues --   -0.02976  -0.02730  -0.02357  -0.02179  -0.01511
 Alpha virt. eigenvalues --   -0.01276  -0.00405  -0.00093   0.02879   0.03377
 Alpha virt. eigenvalues --    0.04148   0.04305   0.04822   0.05283   0.07259
 Alpha virt. eigenvalues --    0.07776   0.07907   0.07956   0.10162   0.10628
 Alpha virt. eigenvalues --    0.10797   0.11252   0.11502   0.11610   0.12060
 Alpha virt. eigenvalues --    0.12395   0.13550   0.13959   0.14410   0.15374
 Alpha virt. eigenvalues --    0.15598   0.16396   0.16528   0.18298   0.19357
 Alpha virt. eigenvalues --    0.19474   0.20685   0.21621   0.21769   0.21986
 Alpha virt. eigenvalues --    0.22158   0.22695   0.23947   0.25449   0.25793
 Alpha virt. eigenvalues --    0.25918   0.27092   0.27522   0.28460   0.29118
 Alpha virt. eigenvalues --    0.30052   0.30067   0.31417   0.31532   0.32073
 Alpha virt. eigenvalues --    0.33242   0.34085   0.34587   0.35005   0.35526
 Alpha virt. eigenvalues --    0.35673   0.36171   0.36630   0.36646   0.38617
 Alpha virt. eigenvalues --    0.39236   0.39563   0.41748   0.45670   0.45723
 Alpha virt. eigenvalues --    0.46897   0.47579   0.48834   0.48887   0.49278
 Alpha virt. eigenvalues --    0.50744   0.52160   0.52676   0.54794   0.55439
 Alpha virt. eigenvalues --    0.55930   0.56257   0.56634   0.57022   0.57461
 Alpha virt. eigenvalues --    0.57468   0.59575   0.59854   0.61520   0.61587
 Alpha virt. eigenvalues --    0.62568   0.63012   0.63913   0.65287   0.66556
 Alpha virt. eigenvalues --    0.67550   0.68118   0.68684   0.69304   0.72843
 Alpha virt. eigenvalues --    0.72940   0.73437   0.73925   0.74620   0.75371
 Alpha virt. eigenvalues --    0.76963   0.78318   0.78984   0.80221   0.82927
 Alpha virt. eigenvalues --    0.83350   0.83988   0.84375   0.84388   0.86068
 Alpha virt. eigenvalues --    0.91751   0.93198   0.94179   0.94531   0.96567
 Alpha virt. eigenvalues --    0.97504   0.98844   0.99220   1.02820   1.03179
 Alpha virt. eigenvalues --    1.03963   1.04741   1.04974   1.07111   1.07895
 Alpha virt. eigenvalues --    1.08378   1.08897   1.09406   1.10057   1.10362
 Alpha virt. eigenvalues --    1.12453   1.12902   1.13362   1.13570   1.18225
 Alpha virt. eigenvalues --    1.20747   1.21369   1.21596   1.21725   1.21817
 Alpha virt. eigenvalues --    1.26701   1.27183   1.27938   1.29001   1.29292
 Alpha virt. eigenvalues --    1.31676   1.32272   1.32299   1.32623   1.34329
 Alpha virt. eigenvalues --    1.35835   1.36394   1.37998   1.38127   1.38616
 Alpha virt. eigenvalues --    1.41270   1.42002   1.42273   1.45376   1.45461
 Alpha virt. eigenvalues --    1.45504   1.46871   1.49110   1.49701   1.50413
 Alpha virt. eigenvalues --    1.51668   1.52086   1.52118   1.52378   1.53411
 Alpha virt. eigenvalues --    1.54207   1.55567   1.58582   1.58693   1.58843
 Alpha virt. eigenvalues --    1.64485   1.66326   1.67388   1.69007   1.70892
 Alpha virt. eigenvalues --    1.71042   1.72483   1.74832   1.76635   1.78211
 Alpha virt. eigenvalues --    1.80504   1.83209   1.83509   1.83572   1.83818
 Alpha virt. eigenvalues --    1.87022   1.88428   1.88572   1.93533   1.94154
 Alpha virt. eigenvalues --    1.94502   1.97088   1.98755   1.99442   2.01337
 Alpha virt. eigenvalues --    2.02531   2.02668   2.03640   2.05165   2.05869
 Alpha virt. eigenvalues --    2.09087   2.09814   2.12302   2.13644   2.14273
 Alpha virt. eigenvalues --    2.14543   2.16917   2.19801   2.23616   2.25683
 Alpha virt. eigenvalues --    2.26497   2.28934   2.29388   2.32208   2.32502
 Alpha virt. eigenvalues --    2.33671   2.34970   2.35784   2.37193   2.40692
 Alpha virt. eigenvalues --    2.41006   2.43718   2.43757   2.43961   2.47591
 Alpha virt. eigenvalues --    2.47858   2.49039   2.49184   2.50005   2.51045
 Alpha virt. eigenvalues --    2.52059   2.54322   2.54462   2.54995   2.56967
 Alpha virt. eigenvalues --    2.58199   2.58257   2.58706   2.60462   2.62007
 Alpha virt. eigenvalues --    2.62043   2.62334   2.62508   2.64370   2.64484
 Alpha virt. eigenvalues --    2.65379   2.66816   2.68200   2.69284   2.69470
 Alpha virt. eigenvalues --    2.69599   2.69617   2.71245   2.71839   2.75288
 Alpha virt. eigenvalues --    2.75414   2.75502   2.77209   2.77555   2.78634
 Alpha virt. eigenvalues --    2.79741   2.80545   2.80580   2.81874   2.82278
 Alpha virt. eigenvalues --    2.82997   2.84332   2.88374   2.88517   2.89441
 Alpha virt. eigenvalues --    2.89513   2.90234   2.90653   2.91059   2.94196
 Alpha virt. eigenvalues --    2.95711   2.96096   2.98038   2.98747   2.99642
 Alpha virt. eigenvalues --    3.01104   3.01818   3.02077   3.02308   3.03700
 Alpha virt. eigenvalues --    3.03925   3.04621   3.07966   3.08498   3.09241
 Alpha virt. eigenvalues --    3.09906   3.10662   3.12072   3.13365   3.13390
 Alpha virt. eigenvalues --    3.14460   3.14641   3.15172   3.16659   3.16886
 Alpha virt. eigenvalues --    3.18604   3.18778   3.19883   3.24868   3.25030
 Alpha virt. eigenvalues --    3.25714   3.26029   3.27162   3.27219   3.28457
 Alpha virt. eigenvalues --    3.28786   3.31010   3.31573   3.32205   3.34136
 Alpha virt. eigenvalues --    3.34508   3.35575   3.35933   3.36595   3.36803
 Alpha virt. eigenvalues --    3.39567   3.40121   3.40270   3.41272   3.42884
 Alpha virt. eigenvalues --    3.44800   3.47921   3.48141   3.48442   3.50847
 Alpha virt. eigenvalues --    3.55162   3.55419   3.57439   3.61158   3.67038
 Alpha virt. eigenvalues --    3.67753   3.68004   3.69421   3.70619   3.71691
 Alpha virt. eigenvalues --    3.73975   3.74456   3.75741   3.75974   3.76083
 Alpha virt. eigenvalues --    3.79724   3.83722   3.85813   3.87108   3.87872
 Alpha virt. eigenvalues --    3.88409   3.88444   3.90496   3.97607   3.98193
 Alpha virt. eigenvalues --    3.98588   3.99798   4.01574   4.01646   4.01682
 Alpha virt. eigenvalues --    4.02304   4.03422   4.04180   4.06006   4.08484
 Alpha virt. eigenvalues --    4.10481   4.11913   4.13896   4.16268   4.16706
 Alpha virt. eigenvalues --    4.20551   4.20622   4.23431   4.27557   4.29347
 Alpha virt. eigenvalues --    4.32680   4.33305   4.34931   4.40898   4.41463
 Alpha virt. eigenvalues --    4.42700   4.46478   4.48214   4.51278   4.56629
 Alpha virt. eigenvalues --    4.57624   4.62255   4.65335   4.66133   4.66264
 Alpha virt. eigenvalues --    4.67045   4.67706   4.71832   4.81910   4.84023
 Alpha virt. eigenvalues --    4.84814   4.92486   4.92576   4.93766   4.99210
 Alpha virt. eigenvalues --    5.00874   5.11671   5.11781   5.22828   5.23297
 Alpha virt. eigenvalues --    5.26180   5.27913   5.37725   5.49552   5.52614
 Alpha virt. eigenvalues --    5.54579   5.58752   5.91064  21.62357  22.27895
 Alpha virt. eigenvalues --   22.39850  22.40818  22.42248  22.48717  22.52100
 Alpha virt. eigenvalues --   22.65782  22.67508  22.68702  22.69429  22.97589
 Alpha virt. eigenvalues --   23.16560  23.54430
  Beta  occ. eigenvalues --  -10.36457 -10.36454 -10.35516 -10.35511 -10.35473
  Beta  occ. eigenvalues --  -10.35473 -10.34818 -10.34817 -10.34816 -10.34814
  Beta  occ. eigenvalues --  -10.34256 -10.34255 -10.34211 -10.34211  -1.05402
  Beta  occ. eigenvalues --   -1.01738  -0.96822  -0.95255  -0.91527  -0.90550
  Beta  occ. eigenvalues --   -0.86772  -0.80788  -0.78203  -0.76775  -0.75273
  Beta  occ. eigenvalues --   -0.69826  -0.68627  -0.66779  -0.62534  -0.62179
  Beta  occ. eigenvalues --   -0.61644  -0.61321  -0.58464  -0.57828  -0.57622
  Beta  occ. eigenvalues --   -0.56803  -0.55244  -0.53657  -0.52522  -0.50717
  Beta  occ. eigenvalues --   -0.50117  -0.49330  -0.46306  -0.45931  -0.41172
  Beta  occ. eigenvalues --   -0.40928
  Beta virt. eigenvalues --   -0.32077  -0.22240  -0.17863  -0.15949  -0.13695
  Beta virt. eigenvalues --   -0.09628  -0.08058  -0.08022  -0.07505  -0.05146
  Beta virt. eigenvalues --   -0.04607  -0.02860  -0.02653  -0.02296  -0.01466
  Beta virt. eigenvalues --   -0.01454  -0.01129  -0.00305   0.00055   0.02999
  Beta virt. eigenvalues --    0.03586   0.04141   0.04848   0.05055   0.05291
  Beta virt. eigenvalues --    0.07518   0.07994   0.08046   0.08162   0.10822
  Beta virt. eigenvalues --    0.10891   0.11299   0.11570   0.11679   0.11711
  Beta virt. eigenvalues --    0.12091   0.12388   0.14022   0.14119   0.14503
  Beta virt. eigenvalues --    0.15541   0.15898   0.16839   0.16992   0.18330
  Beta virt. eigenvalues --    0.19475   0.19590   0.20822   0.21772   0.22190
  Beta virt. eigenvalues --    0.22228   0.22704   0.22943   0.24130   0.25530
  Beta virt. eigenvalues --    0.26012   0.26071   0.27421   0.27797   0.28617
  Beta virt. eigenvalues --    0.29222   0.30095   0.30137   0.31684   0.31875
  Beta virt. eigenvalues --    0.32150   0.33291   0.34305   0.34587   0.35134
  Beta virt. eigenvalues --    0.35739   0.35767   0.36306   0.36706   0.36836
  Beta virt. eigenvalues --    0.38683   0.39428   0.39609   0.41971   0.45823
  Beta virt. eigenvalues --    0.45828   0.47098   0.47617   0.48941   0.49127
  Beta virt. eigenvalues --    0.49330   0.51037   0.52421   0.52707   0.54969
  Beta virt. eigenvalues --    0.55557   0.56154   0.56499   0.57063   0.57144
  Beta virt. eigenvalues --    0.57850   0.58259   0.59681   0.60321   0.61667
  Beta virt. eigenvalues --    0.62023   0.62805   0.63020   0.63986   0.65407
  Beta virt. eigenvalues --    0.66616   0.67823   0.68186   0.68835   0.69465
  Beta virt. eigenvalues --    0.73121   0.73583   0.73613   0.74079   0.74724
  Beta virt. eigenvalues --    0.75434   0.77092   0.78595   0.79443   0.80334
  Beta virt. eigenvalues --    0.83363   0.84059   0.84111   0.84559   0.84743
  Beta virt. eigenvalues --    0.86266   0.91904   0.93588   0.94458   0.94677
  Beta virt. eigenvalues --    0.96679   0.98038   0.99067   0.99583   1.02899
  Beta virt. eigenvalues --    1.03500   1.04428   1.04954   1.05273   1.07161
  Beta virt. eigenvalues --    1.08001   1.08505   1.09081   1.09569   1.10241
  Beta virt. eigenvalues --    1.10840   1.12599   1.13312   1.13504   1.13670
  Beta virt. eigenvalues --    1.18365   1.21445   1.21724   1.21929   1.21990
  Beta virt. eigenvalues --    1.22369   1.27256   1.27725   1.28160   1.29070
  Beta virt. eigenvalues --    1.29409   1.32539   1.32746   1.32832   1.32860
  Beta virt. eigenvalues --    1.34482   1.36085   1.36603   1.38110   1.38172
  Beta virt. eigenvalues --    1.38805   1.41383   1.42375   1.42586   1.45570
  Beta virt. eigenvalues --    1.45701   1.46005   1.46933   1.49795   1.50068
  Beta virt. eigenvalues --    1.50889   1.51786   1.52192   1.52336   1.52523
  Beta virt. eigenvalues --    1.53635   1.54588   1.55833   1.58677   1.58867
  Beta virt. eigenvalues --    1.59056   1.64670   1.67114   1.67847   1.69383
  Beta virt. eigenvalues --    1.70863   1.71508   1.72655   1.75154   1.76920
  Beta virt. eigenvalues --    1.78351   1.80623   1.83479   1.83736   1.83771
  Beta virt. eigenvalues --    1.83986   1.87253   1.88599   1.88809   1.93652
  Beta virt. eigenvalues --    1.94215   1.94730   1.97432   1.99312   1.99692
  Beta virt. eigenvalues --    2.01479   2.02638   2.02855   2.03854   2.05492
  Beta virt. eigenvalues --    2.06197   2.09282   2.10043   2.12574   2.13802
  Beta virt. eigenvalues --    2.14498   2.14736   2.17455   2.20116   2.24005
  Beta virt. eigenvalues --    2.26226   2.26833   2.28982   2.29582   2.32405
  Beta virt. eigenvalues --    2.32872   2.33806   2.35100   2.36062   2.37823
  Beta virt. eigenvalues --    2.40900   2.41216   2.43825   2.43841   2.44203
  Beta virt. eigenvalues --    2.47974   2.48026   2.49457   2.49566   2.50534
  Beta virt. eigenvalues --    2.51286   2.52696   2.54476   2.54545   2.55187
  Beta virt. eigenvalues --    2.57194   2.58500   2.58608   2.58918   2.61064
  Beta virt. eigenvalues --    2.62308   2.62479   2.62621   2.62759   2.64680
  Beta virt. eigenvalues --    2.64730   2.65582   2.67214   2.68432   2.69735
  Beta virt. eigenvalues --    2.69916   2.70106   2.70431   2.71653   2.72016
  Beta virt. eigenvalues --    2.75597   2.75653   2.75993   2.78055   2.78140
  Beta virt. eigenvalues --    2.79062   2.80087   2.80638   2.80897   2.82170
  Beta virt. eigenvalues --    2.82463   2.83437   2.84769   2.88557   2.88679
  Beta virt. eigenvalues --    2.89901   2.89996   2.90753   2.90944   2.91340
  Beta virt. eigenvalues --    2.94388   2.96081   2.96253   2.98461   2.98958
  Beta virt. eigenvalues --    2.99816   3.01596   3.02253   3.02617   3.02951
  Beta virt. eigenvalues --    3.04139   3.04166   3.04978   3.08060   3.09204
  Beta virt. eigenvalues --    3.10103   3.10160   3.11340   3.12161   3.13512
  Beta virt. eigenvalues --    3.13975   3.15189   3.15351   3.15811   3.16831
  Beta virt. eigenvalues --    3.17072   3.18719   3.18911   3.19979   3.24970
  Beta virt. eigenvalues --    3.25714   3.25790   3.26132   3.27482   3.27551
  Beta virt. eigenvalues --    3.28959   3.29174   3.31289   3.31812   3.32419
  Beta virt. eigenvalues --    3.34461   3.34907   3.35898   3.36061   3.36711
  Beta virt. eigenvalues --    3.37262   3.40053   3.40332   3.40435   3.41403
  Beta virt. eigenvalues --    3.43123   3.45202   3.48340   3.48509   3.48562
  Beta virt. eigenvalues --    3.50970   3.55617   3.55664   3.57618   3.61579
  Beta virt. eigenvalues --    3.67272   3.67925   3.68047   3.69842   3.71032
  Beta virt. eigenvalues --    3.71851   3.74401   3.74873   3.75908   3.76131
  Beta virt. eigenvalues --    3.76225   3.80170   3.84183   3.85970   3.87464
  Beta virt. eigenvalues --    3.88161   3.88554   3.88686   3.90946   3.98363
  Beta virt. eigenvalues --    3.98485   3.98673   3.99991   4.01672   4.01884
  Beta virt. eigenvalues --    4.01945   4.02480   4.03502   4.04572   4.06626
  Beta virt. eigenvalues --    4.08600   4.10844   4.12097   4.14221   4.16440
  Beta virt. eigenvalues --    4.17279   4.20672   4.21164   4.23631   4.28183
  Beta virt. eigenvalues --    4.29593   4.33226   4.33591   4.35013   4.41144
  Beta virt. eigenvalues --    4.41693   4.42996   4.46898   4.48429   4.51474
  Beta virt. eigenvalues --    4.56799   4.57704   4.62469   4.65469   4.66461
  Beta virt. eigenvalues --    4.66518   4.67487   4.67863   4.71979   4.82144
  Beta virt. eigenvalues --    4.84213   4.85104   4.92671   4.92680   4.93858
  Beta virt. eigenvalues --    4.99322   5.01126   5.11734   5.11897   5.22931
  Beta virt. eigenvalues --    5.23519   5.26250   5.28034   5.37836   5.49702
  Beta virt. eigenvalues --    5.52780   5.54694   5.58907   5.91136  21.62481
  Beta virt. eigenvalues --   22.28012  22.40165  22.40960  22.42370  22.48762
  Beta virt. eigenvalues --   22.52286  22.65719  22.67776  22.68907  22.69576
  Beta virt. eigenvalues --   22.97910  23.16540  23.54404
          Condensed to atoms (all electrons):
               1          2          3          4          5          6
     1  C    4.839065   0.511346  -0.034547  -0.034563  -0.011654   0.445057
     2  C    0.511346   4.974038   0.428259  -0.035303  -0.051175  -0.011615
     3  C   -0.034547   0.428259   4.847073   0.428606  -0.035280  -0.034595
     4  C   -0.034563  -0.035303   0.428606   4.847078   0.428257  -0.034546
     5  C   -0.011654  -0.051175  -0.035280   0.428257   4.974011   0.511318
     6  C    0.445057  -0.011615  -0.034595  -0.034546   0.511318   4.839114
     7  C    0.006662  -0.081878   0.437654  -0.055492   0.012111  -0.002466
     8  C   -0.002463   0.012111  -0.055503   0.437644  -0.081873   0.006661
     9  C    0.000578   0.002148  -0.025995  -0.029809   0.007408  -0.001563
    10  C   -0.001563   0.007408  -0.029806  -0.026000   0.002148   0.000579
    11  C   -0.000005  -0.001678   0.007399   0.002153   0.000082   0.000012
    12  H    0.000000  -0.000011   0.001876   0.000082  -0.000004   0.000001
    13  C    0.000003  -0.000005  -0.001563   0.000579   0.000012  -0.000004
    14  C   -0.000004   0.000012   0.000579  -0.001564  -0.000005   0.000003
    15  C    0.000012   0.000082   0.002153   0.007405  -0.001677  -0.000005
    16  H    0.000592  -0.001805  -0.034850   0.008804  -0.000317   0.000036
    17  H    0.415419  -0.036567   0.007705  -0.000419   0.006404  -0.036903
    18  H   -0.031353   0.418644  -0.054679   0.006887  -0.001075   0.006508
    19  H    0.006504  -0.001072   0.006886  -0.054690   0.418643  -0.031341
    20  H   -0.036928   0.006406  -0.000418   0.007696  -0.036533   0.415417
    21  H    0.000036  -0.000317   0.008804  -0.034835  -0.001805   0.000592
    22  H   -0.000000  -0.000000   0.000017  -0.000007   0.000000   0.000000
    23  H    0.000000   0.000000  -0.000007   0.000017  -0.000000  -0.000000
    24  H    0.000001  -0.000004   0.000082   0.001879  -0.000011   0.000000
               7          8          9         10         11         12
     1  C    0.006662  -0.002463   0.000578  -0.001563  -0.000005   0.000000
     2  C   -0.081878   0.012111   0.002148   0.007408  -0.001678  -0.000011
     3  C    0.437654  -0.055503  -0.025995  -0.029806   0.007399   0.001876
     4  C   -0.055492   0.437644  -0.029809  -0.026000   0.002153   0.000082
     5  C    0.012111  -0.081873   0.007408   0.002148   0.000082  -0.000004
     6  C   -0.002466   0.006661  -0.001563   0.000579   0.000012   0.000001
     7  C    5.158302  -0.047021  -0.055513   0.437564  -0.081863   0.001436
     8  C   -0.047021   5.158297   0.437547  -0.055503   0.012102  -0.000260
     9  C   -0.055513   0.437547   4.847110   0.428608  -0.035297   0.006888
    10  C    0.437564  -0.055503   0.428608   4.847093   0.428286  -0.054692
    11  C   -0.081863   0.012102  -0.035297   0.428286   4.974000   0.418660
    12  H    0.001436  -0.000260   0.006888  -0.054692   0.418660   0.496966
    13  C    0.006665  -0.002467  -0.034599  -0.034515   0.511289  -0.031357
    14  C   -0.002466   0.006662  -0.034535  -0.034577  -0.011632   0.006508
    15  C    0.012103  -0.081858   0.428280  -0.035280  -0.051160  -0.001075
    16  H    0.397877  -0.001632   0.008802  -0.034810  -0.001808   0.004491
    17  H   -0.000524   0.000080  -0.000007   0.000017  -0.000000   0.000000
    18  H    0.001441  -0.000260   0.000083   0.001876  -0.000011   0.000023
    19  H   -0.000260   0.001445   0.001876   0.000083  -0.000004   0.000000
    20  H    0.000080  -0.000524   0.000017  -0.000007   0.000000  -0.000000
    21  H   -0.001631   0.397859  -0.034808   0.008801  -0.000317   0.000012
    22  H   -0.000524   0.000080  -0.000419   0.007701  -0.036553  -0.005358
    23  H    0.000080  -0.000524   0.007699  -0.000419   0.006405  -0.000161
    24  H   -0.000259   0.001441  -0.054698   0.006882  -0.001074   0.000050
              13         14         15         16         17         18
     1  C    0.000003  -0.000004   0.000012   0.000592   0.415419  -0.031353
     2  C   -0.000005   0.000012   0.000082  -0.001805  -0.036567   0.418644
     3  C   -0.001563   0.000579   0.002153  -0.034850   0.007705  -0.054679
     4  C    0.000579  -0.001564   0.007405   0.008804  -0.000419   0.006887
     5  C    0.000012  -0.000005  -0.001677  -0.000317   0.006404  -0.001075
     6  C   -0.000004   0.000003  -0.000005   0.000036  -0.036903   0.006508
     7  C    0.006665  -0.002466   0.012103   0.397877  -0.000524   0.001441
     8  C   -0.002467   0.006662  -0.081858  -0.001632   0.000080  -0.000260
     9  C   -0.034599  -0.034535   0.428280   0.008802  -0.000007   0.000083
    10  C   -0.034515  -0.034577  -0.035280  -0.034810   0.000017   0.001876
    11  C    0.511289  -0.011632  -0.051160  -0.001808  -0.000000  -0.000011
    12  H   -0.031357   0.006508  -0.001075   0.004491   0.000000   0.000023
    13  C    4.839121   0.445072  -0.011642   0.000591  -0.000000   0.000000
    14  C    0.445072   4.839132   0.511263   0.000036   0.000000   0.000001
    15  C   -0.011642   0.511263   4.974018  -0.000317   0.000000  -0.000004
    16  H    0.000591   0.000036  -0.000317   0.492731  -0.000024   0.004496
    17  H   -0.000000   0.000000   0.000000  -0.000024   0.486721  -0.005359
    18  H    0.000000   0.000001  -0.000004   0.004496  -0.005359   0.496962
    19  H    0.000001   0.000000  -0.000011   0.000013  -0.000161   0.000050
    20  H    0.000000  -0.000000  -0.000000  -0.000002  -0.004030  -0.000161
    21  H    0.000036   0.000591  -0.001807   0.000048  -0.000002   0.000012
    22  H    0.415420  -0.036920   0.006407  -0.000024  -0.000000   0.000000
    23  H   -0.036913   0.415418  -0.036548  -0.000002   0.000000  -0.000000
    24  H    0.006507  -0.031353   0.418663   0.000012  -0.000000   0.000000
              19         20         21         22         23         24
     1  C    0.006504  -0.036928   0.000036  -0.000000   0.000000   0.000001
     2  C   -0.001072   0.006406  -0.000317  -0.000000   0.000000  -0.000004
[...]

     ==================================================
                 Information on Transitions
     ==================================================

 Energy of the 0-0 transition:  23998.9832 cm^(-1)

 NOTE: The energy (transition energy) refers to the relative energy,
       with respect to the 0-0 transition energy
       The intensity is the line intensity.
       DipStr is the dipole strength.

 Energy =  -3217.7298 cm^-1: |0> -> |56^1;55^1>
   -> Intensity = 0.5866     (DipStr = 0.1027E-02)

 Energy =  -2361.7638 cm^-1: |0> -> |56^1;17^1>
   -> Intensity = 0.6183     (DipStr = 0.9246E-03)

 Energy =  -1617.4276 cm^-1: |0> -> |56^1>
   -> Intensity =  1.952     (DipStr = 0.2541E-02)

 Energy =   -611.0929 cm^-1: |0> -> |14^1>
   -> Intensity = 0.8190     (DipStr = 0.8948E-03)

 Energy =      0.0000 cm^-1: |0> -> |0>
   -> Intensity = 0.8577E-10 (DipStr = 0.8445E-13)

     ==================================================
                       Final Spectrum
     ==================================================

 WARNING: About 86% of the calculated intensity is shown in the final
          spectrum.

 Band broadening simulated by mean of Gaussian functions with
 Half-Widths at Half-Maximum of  250.00 cm^(-1)
 
 Legend:
 -------
 1st col.: Energy (in cm^-1)
 2nd col.: Intensity at T=0K
 Intensity: Emitted intensity (in microJ.mol^-1)
 -----------------------------
    15998.9832    0.395833D+00
    16018.9832    0.402032D+00
    16038.9832    0.407958D+00
    16058.9832    0.413597D+00
    16078.9832    0.418942D+00
    16098.9832    0.423993D+00
    16118.9832    0.428759D+00
    16138.9832    0.433253D+00
    16158.9832    0.437493D+00
    16178.9832    0.441498D+00
    16198.9832    0.445290D+00
    16218.9832    0.448892D+00
    16238.9832    0.452322D+00
    16258.9832    0.455601D+00
    16278.9832    0.458747D+00
    16298.9832    0.461772D+00
    16318.9832    0.464689D+00
    16338.9832    0.467509D+00
    16358.9832    0.470245D+00
    16378.9832    0.472907D+00
    16398.9832    0.475500D+00
    16418.9832    0.478042D+00
    16438.9832    0.480548D+00
    16458.9832    0.483037D+00
    16478.9832    0.485532D+00
    16498.9832    0.488057D+00
    16518.9832    0.490645D+00
    16538.9832    0.493324D+00
    16558.9832    0.496129D+00
    16578.9832    0.499090D+00
    16598.9832    0.502240D+00
    16618.9832    0.505608D+00
    16638.9832    0.509219D+00
    16658.9832    0.513092D+00
    16678.9832    0.517239D+00
    16698.9832    0.521669D+00
    16718.9832    0.526381D+00
    16738.9832    0.531365D+00
    16758.9832    0.536605D+00
    16778.9832    0.542078D+00
    16798.9832    0.547754D+00
    16818.9832    0.553607D+00
    16838.9832    0.559596D+00
    16858.9832    0.565688D+00
    16878.9832    0.571841D+00
    16898.9832    0.578040D+00
    16918.9832    0.584242D+00
    16938.9832    0.590423D+00
    16958.9832    0.596559D+00
    16978.9832    0.602640D+00
    16998.9832    0.608651D+00
    17018.9832    0.614598D+00
    17038.9832    0.620474D+00
    17058.9832    0.626289D+00
    17078.9832    0.632058D+00
    17098.9832    0.637805D+00
    17118.9832    0.643545D+00
    17138.9832    0.649301D+00
    17158.9832    0.655095D+00
    17178.9832    0.660963D+00
    17198.9832    0.666931D+00
    17218.9832    0.673034D+00
    17238.9832    0.679294D+00
    17258.9832    0.685750D+00
    17278.9832    0.692428D+00
    17298.9832    0.699360D+00
    17318.9832    0.706566D+00
    17338.9832    0.714066D+00
    17358.9832    0.721882D+00
    17378.9832    0.730025D+00
    17398.9832    0.738500D+00
    17418.9832    0.747310D+00
    17438.9832    0.756446D+00
    17458.9832    0.765898D+00
    17478.9832    0.775648D+00
    17498.9832    0.785670D+00
    17518.9832    0.795935D+00
    17538.9832    0.806408D+00
    17558.9832    0.817063D+00
    17578.9832    0.827849D+00
    17598.9832    0.838729D+00
    17618.9832    0.849663D+00
    17638.9832    0.860606D+00
    17658.9832    0.871521D+00
    17678.9832    0.882369D+00
    17698.9832    0.893098D+00
    17718.9832    0.903675D+00
    17738.9832    0.914049D+00
    17758.9832    0.924179D+00
    17778.9832    0.934007D+00
    17798.9832    0.943480D+00
    17818.9832    0.952544D+00
    17838.9832    0.961140D+00
    17858.9832    0.969205D+00
    17878.9832    0.976685D+00
    17898.9832    0.983518D+00
    17918.9832    0.989658D+00
    17938.9832    0.995060D+00
    17958.9832    0.999701D+00
    17978.9832    0.100355D+01
    17998.9832    0.100661D+01
    18018.9832    0.100890D+01
    18038.9832    0.101045D+01
    18058.9832    0.101132D+01
    18078.9832    0.101157D+01
    18098.9832    0.101129D+01
    18118.9832    0.101059D+01
    18138.9832    0.100957D+01
    18158.9832    0.100835D+01
    18178.9832    0.100704D+01
    18198.9832    0.100576D+01
    18218.9832    0.100462D+01
    18238.9832    0.100373D+01
    18258.9832    0.100317D+01
    18278.9832    0.100302D+01
    18298.9832    0.100334D+01
    18318.9832    0.100420D+01
    18338.9832    0.100558D+01
    18358.9832    0.100753D+01
    18378.9832    0.101004D+01
    18398.9832    0.101309D+01
    18418.9832    0.101670D+01
    18438.9832    0.102081D+01
    18458.9832    0.102541D+01
    18478.9832    0.103049D+01
    18498.9832    0.103603D+01
    18518.9832    0.104201D+01
    18538.9832    0.104840D+01
    18558.9832    0.105521D+01
    18578.9832    0.106245D+01
    18598.9832    0.107008D+01
    18618.9832    0.107814D+01
    18638.9832    0.108660D+01
    18658.9832    0.109548D+01
    18678.9832    0.110478D+01
    18698.9832    0.111451D+01
    18718.9832    0.112462D+01
    18738.9832    0.113513D+01
    18758.9832    0.114600D+01
    18778.9832    0.115722D+01
    18798.9832    0.116875D+01
    18818.9832    0.118057D+01
    18838.9832    0.119262D+01
    18858.9832    0.120486D+01
    18878.9832    0.121727D+01
    18898.9832    0.122979D+01
    18918.9832    0.124237D+01
    18938.9832    0.125496D+01
    18958.9832    0.126754D+01
    18978.9832    0.128004D+01
    18998.9832    0.129243D+01
    19018.9832    0.130467D+01
    19038.9832    0.131674D+01
    19058.9832    0.132859D+01
    19078.9832    0.134020D+01
    19098.9832    0.135156D+01
    19118.9832    0.136265D+01
    19138.9832    0.137346D+01
    19158.9832    0.138402D+01
    19178.9832    0.139431D+01
    19198.9832    0.140433D+01
    19218.9832    0.141413D+01
    19238.9832    0.142373D+01
    19258.9832    0.143316D+01
    19278.9832    0.144246D+01
    19298.9832    0.145165D+01
    19318.9832    0.146080D+01
    19338.9832    0.146992D+01
    19358.9832    0.147905D+01
    19378.9832    0.148820D+01
    19398.9832    0.149740D+01
    19418.9832    0.150663D+01
    19438.9832    0.151590D+01
    19458.9832    0.152521D+01
    19478.9832    0.153454D+01
    19498.9832    0.154387D+01
    19518.9832    0.155321D+01
    19538.9832    0.156252D+01
    19558.9832    0.157185D+01
    19578.9832    0.158117D+01
    19598.9832    0.159051D+01
    19618.9832    0.159992D+01
    19638.9832    0.160946D+01
    19658.9832    0.161918D+01
    19678.9832    0.162917D+01
    19698.9832    0.163950D+01
    19718.9832    0.165029D+01
    19738.9832    0.166159D+01
    19758.9832    0.167349D+01
    19778.9832    0.168603D+01
    19798.9832    0.169927D+01
    19818.9832    0.171323D+01
    19838.9832    0.172789D+01
    19858.9832    0.174320D+01
    19878.9832    0.175909D+01
    19898.9832    0.177548D+01
    19918.9832    0.179239D+01
    19938.9832    0.180943D+01
    19958.9832    0.182659D+01
    19978.9832    0.184370D+01
    19998.9832    0.186060D+01
    20018.9832    0.187722D+01
    20038.9832    0.189339D+01
    20058.9832    0.190903D+01
    20078.9832    0.192414D+01
    20098.9832    0.193871D+01
    20118.9832    0.195271D+01
    20138.9832    0.196623D+01
    20158.9832    0.197933D+01
    20178.9832    0.199221D+01
    20198.9832    0.200496D+01
    20218.9832    0.201780D+01
    20238.9832    0.203089D+01
    20258.9832    0.204447D+01
    20278.9832    0.205875D+01
    20298.9832    0.207400D+01
    20318.9832    0.209036D+01
    20338.9832    0.210810D+01
    20358.9832    0.212742D+01
    20378.9832    0.214852D+01
    20398.9832    0.217153D+01
    20418.9832    0.219661D+01
    20438.9832    0.222381D+01
    20458.9832    0.225324D+01
    20478.9832    0.228485D+01
    20498.9832    0.231859D+01
    20518.9832    0.235432D+01
    20538.9832    0.239186D+01
    20558.9832    0.243091D+01
    20578.9832    0.247115D+01
    20598.9832    0.251214D+01
    20618.9832    0.255340D+01
    20638.9832    0.259442D+01
    20658.9832    0.263463D+01
    20678.9832    0.267344D+01
    20698.9832    0.271026D+01
    20718.9832    0.274455D+01
    20738.9832    0.277578D+01
    20758.9832    0.280360D+01
    20778.9832    0.282745D+01
    20798.9832    0.284711D+01
    20818.9832    0.286241D+01
    20838.9832    0.287323D+01
    20858.9832    0.287963D+01
    20878.9832    0.288170D+01
    20898.9832    0.287959D+01
    20918.9832    0.287376D+01
    20938.9832    0.286441D+01
    20958.9832    0.285197D+01
    20978.9832    0.283687D+01
    20998.9832    0.281959D+01
    21018.9832    0.280047D+01
    21038.9832    0.278001D+01
    21058.9832    0.275858D+01
    21078.9832    0.273662D+01
    21098.9832    0.271443D+01
    21118.9832    0.269242D+01
    21138.9832    0.267082D+01
    21158.9832    0.265003D+01
    21178.9832    0.263025D+01
    21198.9832    0.261180D+01
    21218.9832    0.259495D+01
    21238.9832    0.257998D+01
    21258.9832    0.256714D+01
    21278.9832    0.255671D+01
    21298.9832    0.254890D+01
    21318.9832    0.254399D+01
    21338.9832    0.254213D+01
    21358.9832    0.254345D+01
    21378.9832    0.254802D+01
    21398.9832    0.255591D+01
    21418.9832    0.256704D+01
    21438.9832    0.258125D+01
    21458.9832    0.259832D+01
    21478.9832    0.261798D+01
    21498.9832    0.263980D+01
    21518.9832    0.266382D+01
    21538.9832    0.268875D+01
    21558.9832    0.271438D+01
    21578.9832    0.274009D+01
    21598.9832    0.276528D+01
    21618.9832    0.278941D+01
    21638.9832    0.281189D+01
    21658.9832    0.283209D+01
    21678.9832    0.284982D+01
    21698.9832    0.286461D+01
    21718.9832    0.287617D+01
    21738.9832    0.288434D+01
    21758.9832    0.288907D+01
    21778.9832    0.289058D+01
    21798.9832    0.288896D+01
    21818.9832    0.288469D+01
    21838.9832    0.287810D+01
    21858.9832    0.286996D+01
    21878.9832    0.286096D+01
    21898.9832    0.285192D+01
    21918.9832    0.284374D+01
    21938.9832    0.283743D+01
    21958.9832    0.283394D+01
    21978.9832    0.283426D+01
    21998.9832    0.283935D+01
    22018.9832    0.284998D+01
    22038.9832    0.286681D+01
    22058.9832    0.289047D+01
    22078.9832    0.292118D+01
    22098.9832    0.295893D+01
    22118.9832    0.300349D+01
    22138.9832    0.305435D+01
    22158.9832    0.311061D+01
    22178.9832    0.317107D+01
    22198.9832    0.323432D+01
    22218.9832    0.329870D+01
    22238.9832    0.336234D+01
    22258.9832    0.342327D+01
    22278.9832    0.347948D+01
    22298.9832    0.352897D+01
    22318.9832    0.356989D+01
    22338.9832    0.360056D+01
    22358.9832    0.361956D+01
    22378.9832    0.362574D+01
    22398.9832    0.361835D+01
    22418.9832    0.359699D+01
    22438.9832    0.356165D+01
    22458.9832    0.351276D+01
    22478.9832    0.345093D+01
    22498.9832    0.337702D+01
    22518.9832    0.329289D+01
    22538.9832    0.319945D+01
    22558.9832    0.309839D+01
    22578.9832    0.299139D+01
    22598.9832    0.288005D+01
    22618.9832    0.276599D+01
    22638.9832    0.265070D+01
    22658.9832    0.253544D+01
    22678.9832    0.242154D+01
    22698.9832    0.230993D+01
    22718.9832    0.220146D+01
    22738.9832    0.209677D+01
    22758.9832    0.199651D+01
    22778.9832    0.190099D+01
    22798.9832    0.181055D+01
    22818.9832    0.172540D+01
    22838.9832    0.164573D+01
    22858.9832    0.157165D+01
    22878.9832    0.150340D+01
    22898.9832    0.144100D+01
    22918.9832    0.138471D+01
    22938.9832    0.133463D+01
    22958.9832    0.129090D+01
    22978.9832    0.125370D+01
    22998.9832    0.122312D+01
    23018.9832    0.119924D+01
    23038.9832    0.118201D+01
    23058.9832    0.117134D+01
    23078.9832    0.116699D+01
    23098.9832    0.116858D+01
    23118.9832    0.117557D+01
    23138.9832    0.118724D+01
    23158.9832    0.120275D+01
    23178.9832    0.122111D+01
    23198.9832    0.124118D+01
    23218.9832    0.126174D+01
    23238.9832    0.128150D+01
    23258.9832    0.129878D+01
    23278.9832    0.131320D+01
    23298.9832    0.132298D+01
    23318.9832    0.132717D+01
    23338.9832    0.132486D+01
    23358.9832    0.131535D+01
    23378.9832    0.129820D+01
    23398.9832    0.127325D+01
    23418.9832    0.124053D+01
    23438.9832    0.120035D+01
    23458.9832    0.115328D+01
    23478.9832    0.110010D+01
    23498.9832    0.104168D+01
    23518.9832    0.979020D+00
    23538.9832    0.913361D+00
    23558.9832    0.845715D+00
    23578.9832    0.777374D+00
    23598.9832    0.709339D+00
    23618.9832    0.642609D+00
    23638.9832    0.578067D+00
    23658.9832    0.516464D+00
    23678.9832    0.458374D+00
    23698.9832    0.404232D+00
    23718.9832    0.354428D+00
    23738.9832    0.309007D+00
    23758.9832    0.268064D+00
    23778.9832    0.231469D+00
    23798.9832    0.199058D+00
    23818.9832    0.170569D+00
    23838.9832    0.145731D+00
    23858.9832    0.124227D+00
    23878.9832    0.105688D+00
    23898.9832    0.897929D-01
    23918.9832    0.762481D-01
    23938.9832    0.647083D-01
    23958.9832    0.549029D-01
    23978.9832    0.465746D-01
    23998.9832    0.394995D-01
    24018.9832    0.334857D-01
    24038.9832    0.283666D-01
    24058.9832    0.240055D-01
    24078.9832    0.202829D-01
    24098.9832    0.171016D-01
    24118.9832    0.143796D-01
    24138.9832    0.120532D-01
    24158.9832    0.100645D-01
    24178.9832    0.836816D-02
    24198.9832    0.684071D-02
    24218.9832    0.564291D-02
    24238.9832    0.462567D-02
    24258.9832    0.358737D-02
    24278.9832    0.292685D-02
    24298.9832    0.236925D-02
    24318.9832    0.190219D-02
    24338.9832    0.151472D-02
    24358.9832    0.119613D-02
    24378.9832    0.936942D-03
    24398.9832    0.727772D-03
    24418.9832    0.560843D-03
    24438.9832    0.428667D-03
    24458.9832    0.324962D-03
    24478.9832    0.244331D-03
    24498.9832    0.182203D-03
    24518.9832    0.134746D-03
    24538.9832    0.988451D-04
    24558.9832    0.719151D-04
    24578.9832    0.518931D-04
    24598.9832    0.371381D-04
    24618.9832    0.263601D-04
    24638.9832    0.118508D-04
    24658.9832    0.842606D-05
    24678.9832    0.593813D-05
    24698.9832    0.414784D-05
    24718.9832    0.287172D-05
    24738.9832    0.197065D-05
    24758.9832    0.697937D-08
    24778.9832    0.100696D-12
    24798.9832    0.709271D-13
    24818.9832    0.495175D-13
    24838.9832    0.342650D-13
    24858.9832    0.235013D-13
    24878.9832    0.000000D+00
    24898.9832    0.000000D+00
    24918.9832    0.000000D+00
    24938.9832    0.000000D+00
    24958.9832    0.000000D+00
    24978.9832    0.000000D+00
    24998.9832    0.000000D+00
 -----------------------------

 Leave Link  718 at Wed Apr  3 17:21:12 2024, MaxMem= 33554432000 cpu:             592.5 elap:              18.6
 (Enter /apps/gaussian/g16-c01-avx2/g16/l9999.exe)

 ----------------------------------------------------------------------

 Electric dipole moment (input orientation):
 (Debye = 10**-18 statcoulomb cm , SI units = C m)
                  (au)            (Debye)         (10**-30 SI)
   Tot        0.135522D-04      0.344463D-04      0.114901D-03
   x          0.000000D+00      0.000000D+00      0.000000D+00
   y          0.000000D+00      0.000000D+00      0.000000D+00
   z         -0.135522D-04     -0.344463D-04     -0.114901D-03

 Dipole polarizability, Alpha (input orientation).
 (esu units = cm**3 , SI units = C**2 m**2 J**-1)
 Alpha(0;0):
               (au)            (10**-24 esu)      (10**-40 SI)
   iso        0.187857D+03      0.278376D+02      0.309735D+02
   aniso      0.231097D+03      0.342451D+02      0.381028D+02
   xx         0.288560D+03      0.427602D+02      0.475771D+02
   yx         0.767064D+02      0.113667D+02      0.126472D+02
   yy         0.203173D+03      0.301071D+02      0.334986D+02
   zx         0.562675D+00      0.833799D-01      0.927726D-01
   zy        -0.828426D-01     -0.122760D-01     -0.136589D-01
   zz         0.718400D+02      0.106456D+02      0.118448D+02

 ----------------------------------------------------------------------

 Dipole orientation:
     6         -6.60069289          1.07117525         -2.16992378
     6         -4.38853462          2.43392386         -1.85545854
     6         -2.18952171          1.24771861         -0.93354404
     6         -2.27476110         -1.39358600         -0.32512086
     6         -4.55514804         -2.72623787         -0.66651415
     6         -6.68387850         -1.50540462         -1.57628847
     6          0.08315047          2.57726957         -0.59359180
     6         -0.08320169         -2.57722884          0.59377094
     6          2.18947260         -1.24768290          0.93370873
     6          2.27472273          1.39361557          0.32524879
     6          4.55514649          2.72623876          0.66650942
     1          4.62911580          4.71910843          0.21025135
     6          6.68393232          1.50536242          1.57609644
     6          6.60075735         -1.07122564          2.16969924
     6          4.38854916         -2.43393438          1.85541559
     1          0.14752455          4.57211888         -1.05306216
     1         -8.27693510          2.00168924         -2.87888857
     1         -4.33391133          4.42617268         -2.31712432
     1         -4.62914856         -4.71907865         -0.21013338
     1         -8.42376494         -2.54764414         -1.83086096
     1         -0.14764128         -4.57200549          1.05354751
     1          8.42389158          2.54753815          1.83043033
     1          8.27702670         -2.00177848          2.87854837
     1          4.33388716         -4.42614351          2.31724682

 Electric dipole moment (dipole orientation):
 (Debye = 10**-18 statcoulomb cm , SI units = C m)
                  (au)            (Debye)         (10**-30 SI)
   Tot        0.144791D-04      0.368023D-04      0.122759D-03
   x          0.000000D+00      0.000000D+00      0.000000D+00
   y          0.000000D+00      0.000000D+00      0.000000D+00
   z          0.144791D-04      0.368023D-04      0.122759D-03

 Dipole polarizability, Alpha (dipole orientation).
 (esu units = cm**3 , SI units = C**2 m**2 J**-1)
 Alpha(0;0):
               (au)            (10**-24 esu)      (10**-40 SI)
   iso        0.187857D+03      0.278376D+02      0.309735D+02
   aniso      0.231097D+03      0.342451D+02      0.381028D+02
   xx         0.268183D+03      0.397407D+02      0.442175D+02
   yx        -0.614661D+02     -0.910834D+01     -0.101344D+02
   yy         0.191902D+03      0.284369D+02      0.316403D+02
   zx         0.710583D+02      0.105298D+02      0.117159D+02
   zy        -0.467027D+02     -0.692062D+01     -0.770023D+01
   zz         0.103487D+03      0.153352D+02      0.170627D+02

 ----------------------------------------------------------------------

 This type of calculation cannot be archived.


 ON A CLEAR DISK YOU CAN SEEK FOREVER.
 Job cpu time:       0 days  0 hours 10 minutes  2.1 seconds.
 Elapsed time:       0 days  0 hours  0 minutes 19.0 seconds.
 File lengths (MBytes):  RWF=      6 Int=      0 D2E=      0 Chk=     28 Scr=      1
 Normal termination of Gaussian 16 at Wed Apr  3 17:21:13 2024.
