 Entering Gaussian System, Link 0=g16
 Input=p_pbe0_sto.gjf
 Output=p_pbe0_sto.log
 Initial command:
 /apps/gaussian/g16-c01-avx2/g16/l1.exe "/var/tmp/pbs.9303991.pbs/Gau-257987.inp" -scrdir="/var/tmp/pbs.9303991.pbs/"
 Entering Link 1 = /apps/gaussian/g16-c01-avx2/g16/l1.exe PID=    257995.
  
 Copyright (c) 1988-2019, Gaussian, Inc.  All Rights Reserved.
  
 This is part of the Gaussian(R) 16 program.  It is based on
 the Gaussian(R) 09 system (copyright 2009, Gaussian, Inc.),
 the Gaussian(R) 03 system (copyright 2003, Gaussian, Inc.),
 the Gaussian(R) 98 system (copyright 1998, Gaussian, Inc.),
 the Gaussian(R) 94 system (copyright 1995, Gaussian, Inc.),
 the Gaussian 92(TM) system (copyright 1992, Gaussian, Inc.),
 the Gaussian 90(TM) system (copyright 1990, Gaussian, Inc.),
 the Gaussian 88(TM) system (copyright 1988, Gaussian, Inc.),
 the Gaussian 86(TM) system (copyright 1986, Carnegie Mellon
 University), and the Gaussian 82(TM) system (copyright 1983,
 Carnegie Mellon University). Gaussian is a federally registered
 trademark of Gaussian, Inc.
  
 This software contains proprietary and confidential information,
 including trade secrets, belonging to Gaussian, Inc.
  
 This software is provided under written license and may be
 used, copied, transmitted, or stored only in accord with that
 written license.
  
 The following legend is applicable only to US Government
 contracts under FAR:
  
                    RESTRICTED RIGHTS LEGEND
  
 Use, reproduction and disclosure by the US Government is
 subject to restrictions as set forth in subparagraphs (a)
 and (c) of the Commercial Computer Software - Restricted
 Rights clause in FAR 52.227-19.
  
 Gaussian, Inc.
 340 Quinnipiac St., Bldg. 40, Wallingford CT 06492
  
  
 ---------------------------------------------------------------
 Warning -- This program may not be used in any manner that
 competes with the business of Gaussian, Inc. or will provide
 assistance to any competitor of Gaussian, Inc.  The licensee
 of this program is prohibited from giving any competitor of
 Gaussian, Inc. access to this program.  By using this program,
 the user acknowledges that Gaussian, Inc. is engaged in the
 business of creating and licensing software in the field of
 computational chemistry and represents and warrants to the
 licensee that it is not a competitor of Gaussian, Inc. and that
 it will not use this program in any manner prohibited above.
 ---------------------------------------------------------------
  

 Cite this work as:
 Gaussian 16, Revision C.01,
 M. J. Frisch, G. W. Trucks, H. B. Schlegel, G. E. Scuseria, 
 M. A. Robb, J. R. Cheeseman, G. Scalmani, V. Barone, 
 G. A. Petersson, H. Nakatsuji, X. Li, M. Caricato, A. V. Marenich, 
 J. Bloino, B. G. Janesko, R. Gomperts, B. Mennucci, H. P. Hratchian, 
 J. V. Ortiz, A. F. Izmaylov, J. L. Sonnenberg, D. Williams-Young, 
 F. Ding, F. Lipparini, F. Egidi, J. Goings, B. Peng, A. Petrone, 
 T. Henderson, D. Ranasinghe, V. G. Zakrzewski, J. Gao, N. Rega, 
 G. Zheng, W. Liang, M. Hada, M. Ehara, K. Toyota, R. Fukuda, 
 J. Hasegawa, M. Ishida, T. Nakajima, Y. Honda, O. Kitao, H. Nakai, 
 T. Vreven, K. Throssell, J. A. Montgomery, Jr., J. E. Peralta, 
 F. Ogliaro, M. J. Bearpark, J. J. Heyd, E. N. Brothers, K. N. Kudin, 
 V. N. Staroverov, T. A. Keith, R. Kobayashi, J. Normand, 
 K. Raghavachari, A. P. Rendell, J. C. Burant, S. S. Iyengar, 
 J. Tomasi, M. Cossi, J. M. Millam, M. Klene, C. Adamo, R. Cammi, 
 J. W. Ochterski, R. L. Martin, K. Morokuma, O. Farkas, 
 J. B. Foresman, and D. J. Fox, Gaussian, Inc., Wallingford CT, 2019.
 
 ******************************************
 Gaussian 16:  ES64L-G16RevC.01  3-Jul-2019
                22-Apr-2024 
 ******************************************
 %chk=p_pbe0_sto_1-1.chk
 %NProcShared=16
 Will use up to   16 processors via shared memory.
 %Mem=128GB
 --------------------------------------------
 #p PBE1PBE/STO-3G geom=connectivity opt freq
 --------------------------------------------
 1/18=20,19=15,26=3,38=1,57=2/1,3;
 2/9=110,12=2,17=6,18=5,40=1/2;
 3/6=3,11=2,25=1,30=1,71=1,74=-13/1,2,3;
 4//1;
 5/5=2,38=5/2;
 6/7=2,8=2,9=2,10=2,28=1/1;
 7//1,2,3,16;
 1/18=20,19=15,26=3/3(2);
 2/9=110/2;
 99//99;
 2/9=110/2;
 3/6=3,11=2,25=1,30=1,71=1,74=-13/1,2,3;
 4/5=5,16=3,69=1/1;
 5/5=2,38=5/2;
 7//1,2,3,16;
 1/18=20,19=15,26=3/3(-5);
 2/9=110/2;
 6/7=2,8=2,9=2,10=2,19=2,28=1/1;
 99/9=1/99;
 Leave Link    1 at Mon Apr 22 03:56:55 2024, MaxMem= 17179869184 cpu:               0.3 elap:               0.0
 (Enter /apps/gaussian/g16-c01-avx2/g16/l101.exe)
 ----------------------------------------------------------------------
 Ground state geometry optimization and frequency calculation of peryle
 ne.
 ----------------------------------------------------------------------
 Symbolic Z-matrix:
 Charge =  0 Multiplicity = 1
 C                    -1.20569  -3.39753  -0.00015 
 C                     0.21957  -3.39753  -0.00015 
 C                     0.90215  -2.16528  -0.00015 
 C                     0.16572  -0.9405    0.00002 
 C                    -1.24272  -0.96551  -0.00009 
 C                    -1.9111   -2.22434  -0.00015 
 C                     2.33104  -2.13991  -0.0001 
 C                     0.8582    0.30964   0.00039 
 C                     2.2871    0.33502   0.00079 
 C                     3.02352  -0.88975   0.0005 
 C                     2.96965   1.56728   0.00153 
 C                     0.13231   1.51689   0.0006 
 C                    -1.29206   1.4663    0.00029 
 C                    -1.95537   0.26879  -0.00001 
 H                    -3.05565   0.23636  -0.00016 
 H                    -1.84819   2.41624   0.00036 
 H                    -1.72776  -4.36662  -0.00016 
 H                    -3.01184  -2.23099  -0.00015 
 C                     3.05692  -3.34715  -0.00053 
 C                     4.48129  -3.29656  -0.0005 
 C                     5.1446   -2.09905   0.00035 
 C                     4.43196  -0.86475   0.0009 
 H                     5.03742  -4.24649  -0.00099 
 H                     6.24488  -2.06662   0.0006 
 C                     4.39491   1.56729   0.00232 
 H                     4.91697   2.53639   0.00333 
 C                     5.10033   0.39409   0.00191 
 H                     6.20107   0.40077   0.00236 
 H                     0.86079  -4.29132  -0.00027 
 H                     2.50693  -4.29978  -0.00064 
 H                     0.68229   2.46952   0.00102 
 H                     2.38618   2.49978   0.00165 
 
 ITRead=  0  0  0  0  0  0  0  0  0  0  0  0  0  0  0  0  0  0  0  0
 ITRead=  0  0  0  0  0  0  0  0  0  0  0  0
 MicOpt= -1 -1 -1 -1 -1 -1 -1 -1 -1 -1 -1 -1 -1 -1 -1 -1 -1 -1 -1 -1
 MicOpt= -1 -1 -1 -1 -1 -1 -1 -1 -1 -1 -1 -1
 NAtoms=     32 NQM=       32 NQMF=       0 NMMI=      0 NMMIF=      0
                NMic=       0 NMicF=      0.
                    Isotopes and Nuclear Properties:
 (Nuclear quadrupole moments (NQMom) in fm**2, nuclear magnetic moments (NMagM)
  in nuclear magnetons)

  Atom         1           2           3           4           5           6           7           8           9          10
 IAtWgt=          12          12          12          12          12          12          12          12          12          12
 AtmWgt=  12.0000000  12.0000000  12.0000000  12.0000000  12.0000000  12.0000000  12.0000000  12.0000000  12.0000000  12.0000000
 NucSpn=           0           0           0           0           0           0           0           0           0           0
 AtZEff=  -0.0000000  -0.0000000  -0.0000000  -0.0000000  -0.0000000  -0.0000000  -0.0000000  -0.0000000  -0.0000000  -0.0000000
 NQMom=    0.0000000   0.0000000   0.0000000   0.0000000   0.0000000   0.0000000   0.0000000   0.0000000   0.0000000   0.0000000
 NMagM=    0.0000000   0.0000000   0.0000000   0.0000000   0.0000000   0.0000000   0.0000000   0.0000000   0.0000000   0.0000000
 AtZNuc=   6.0000000   6.0000000   6.0000000   6.0000000   6.0000000   6.0000000   6.0000000   6.0000000   6.0000000   6.0000000

  Atom        11          12          13          14          15          16          17          18          19          20
 IAtWgt=          12          12          12          12           1           1           1           1          12          12
 AtmWgt=  12.0000000  12.0000000  12.0000000  12.0000000   1.0078250   1.0078250   1.0078250   1.0078250  12.0000000  12.0000000
 NucSpn=           0           0           0           0           1           1           1           1           0           0
 AtZEff=  -0.0000000  -0.0000000  -0.0000000  -0.0000000  -0.0000000  -0.0000000  -0.0000000  -0.0000000  -0.0000000  -0.0000000
 NQMom=    0.0000000   0.0000000   0.0000000   0.0000000   0.0000000   0.0000000   0.0000000   0.0000000   0.0000000   0.0000000
 NMagM=    0.0000000   0.0000000   0.0000000   0.0000000   2.7928460   2.7928460   2.7928460   2.7928460   0.0000000   0.0000000
 AtZNuc=   6.0000000   6.0000000   6.0000000   6.0000000   1.0000000   1.0000000   1.0000000   1.0000000   6.0000000   6.0000000

  Atom        21          22          23          24          25          26          27          28          29          30
 IAtWgt=          12          12           1           1          12           1          12           1           1           1
 AtmWgt=  12.0000000  12.0000000   1.0078250   1.0078250  12.0000000   1.0078250  12.0000000   1.0078250   1.0078250   1.0078250
 NucSpn=           0           0           1           1           0           1           0           1           1           1
 AtZEff=  -0.0000000  -0.0000000  -0.0000000  -0.0000000  -0.0000000  -0.0000000  -0.0000000  -0.0000000  -0.0000000  -0.0000000
 NQMom=    0.0000000   0.0000000   0.0000000   0.0000000   0.0000000   0.0000000   0.0000000   0.0000000   0.0000000   0.0000000
 NMagM=    0.0000000   0.0000000   2.7928460   2.7928460   0.0000000   2.7928460   0.0000000   2.7928460   2.7928460   2.7928460
 AtZNuc=   6.0000000   6.0000000   1.0000000   1.0000000   6.0000000   1.0000000   6.0000000   1.0000000   1.0000000   1.0000000

  Atom        31          32
 IAtWgt=           1           1
 AtmWgt=   1.0078250   1.0078250
 NucSpn=           1           1
 AtZEff=  -0.0000000  -0.0000000
 NQMom=    0.0000000   0.0000000
 NMagM=    2.7928460   2.7928460
 AtZNuc=   1.0000000   1.0000000
 Leave Link  101 at Mon Apr 22 03:56:58 2024, MaxMem= 17179869184 cpu:               2.3 elap:               0.2
 (Enter /apps/gaussian/g16-c01-avx2/g16/l103.exe)

 GradGradGradGradGradGradGradGradGradGradGradGradGradGradGradGradGradGrad
 Berny optimization.
 Initialization pass.
                           ----------------------------
                           !    Initial Parameters    !
                           ! (Angstroms and Degrees)  !
 --------------------------                            --------------------------
 ! Name  Definition              Value          Derivative Info.                !
 --------------------------------------------------------------------------------
 ! R1    R(1,2)                  1.4253         estimate D2E/DX2                !
 ! R2    R(1,6)                  1.3689         estimate D2E/DX2                !
 ! R3    R(1,17)                 1.1008         estimate D2E/DX2                !
 ! R4    R(2,3)                  1.4087         estimate D2E/DX2                !
 ! R5    R(2,29)                 1.1            estimate D2E/DX2                !
 ! R6    R(3,4)                  1.4291         estimate D2E/DX2                !
 ! R7    R(3,7)                  1.4291         estimate D2E/DX2                !
 ! R8    R(4,5)                  1.4087         estimate D2E/DX2                !
 ! R9    R(4,8)                  1.4291         estimate D2E/DX2                !
 ! R10   R(5,6)                  1.4253         estimate D2E/DX2                !
 ! R11   R(5,14)                 1.4253         estimate D2E/DX2                !
 ! R12   R(6,18)                 1.1008         estimate D2E/DX2                !
 ! R13   R(7,10)                 1.4291         estimate D2E/DX2                !
 ! R14   R(7,19)                 1.4087         estimate D2E/DX2                !
 ! R15   R(8,9)                  1.4291         estimate D2E/DX2                !
 ! R16   R(8,12)                 1.4087         estimate D2E/DX2                !
 ! R17   R(9,10)                 1.4291         estimate D2E/DX2                !
 ! R18   R(9,11)                 1.4087         estimate D2E/DX2                !
 ! R19   R(10,22)                1.4087         estimate D2E/DX2                !
 ! R20   R(11,25)                1.4253         estimate D2E/DX2                !
 ! R21   R(11,32)                1.1            estimate D2E/DX2                !
 ! R22   R(12,13)                1.4253         estimate D2E/DX2                !
 ! R23   R(12,31)                1.1            estimate D2E/DX2                !
 ! R24   R(13,14)                1.3689         estimate D2E/DX2                !
 ! R25   R(13,16)                1.1008         estimate D2E/DX2                !
 ! R26   R(14,15)                1.1008         estimate D2E/DX2                !
 ! R27   R(19,20)                1.4253         estimate D2E/DX2                !
 ! R28   R(19,30)                1.1            estimate D2E/DX2                !
 ! R29   R(20,21)                1.3689         estimate D2E/DX2                !
 ! R30   R(20,23)                1.1008         estimate D2E/DX2                !
 ! R31   R(21,22)                1.4253         estimate D2E/DX2                !
 ! R32   R(21,24)                1.1008         estimate D2E/DX2                !
 ! R33   R(22,27)                1.4253         estimate D2E/DX2                !
 ! R34   R(25,26)                1.1008         estimate D2E/DX2                !
 ! R35   R(25,27)                1.3689         estimate D2E/DX2                !
 ! R36   R(27,28)                1.1008         estimate D2E/DX2                !
 ! A1    A(2,1,6)              121.0175         estimate D2E/DX2                !
 ! A2    A(2,1,17)             118.3124         estimate D2E/DX2                !
 ! A3    A(6,1,17)             120.6701         estimate D2E/DX2                !
 ! A4    A(1,2,3)              118.9833         estimate D2E/DX2                !
 ! A5    A(1,2,29)             125.6563         estimate D2E/DX2                !
 ! A6    A(3,2,29)             115.3604         estimate D2E/DX2                !
 ! A7    A(2,3,4)              119.9994         estimate D2E/DX2                !
 ! A8    A(2,3,7)              120.0006         estimate D2E/DX2                !
 ! A9    A(4,3,7)              120.0            estimate D2E/DX2                !
 ! A10   A(3,4,5)              119.9999         estimate D2E/DX2                !
 ! A11   A(3,4,8)              119.9998         estimate D2E/DX2                !
 ! A12   A(5,4,8)              120.0003         estimate D2E/DX2                !
 ! A13   A(4,5,6)              118.9837         estimate D2E/DX2                !
 ! A14   A(4,5,14)             118.9833         estimate D2E/DX2                !
 ! A15   A(6,5,14)             122.033          estimate D2E/DX2                !
 ! A16   A(1,6,5)              121.0162         estimate D2E/DX2                !
 ! A17   A(1,6,18)             120.6712         estimate D2E/DX2                !
 ! A18   A(5,6,18)             118.3127         estimate D2E/DX2                !
 ! A19   A(3,7,10)             119.9999         estimate D2E/DX2                !
 ! A20   A(3,7,19)             120.0            estimate D2E/DX2                !
 ! A21   A(10,7,19)            120.0            estimate D2E/DX2                !
 ! A22   A(4,8,9)              120.0007         estimate D2E/DX2                !
 ! A23   A(4,8,12)             119.9995         estimate D2E/DX2                !
 ! A24   A(9,8,12)             119.9999         estimate D2E/DX2                !
 ! A25   A(8,9,10)             119.9994         estimate D2E/DX2                !
 ! A26   A(8,9,11)             120.0            estimate D2E/DX2                !
 ! A27   A(10,9,11)            120.0006         estimate D2E/DX2                !
 ! A28   A(7,10,9)             120.0002         estimate D2E/DX2                !
 ! A29   A(7,10,22)            119.9996         estimate D2E/DX2                !
 ! A30   A(9,10,22)            120.0001         estimate D2E/DX2                !
 ! A31   A(9,11,25)            118.9824         estimate D2E/DX2                !
 ! A32   A(9,11,32)            118.9835         estimate D2E/DX2                !
 ! A33   A(25,11,32)           122.0341         estimate D2E/DX2                !
 ! A34   A(8,12,13)            118.9838         estimate D2E/DX2                !
 ! A35   A(8,12,31)            118.9832         estimate D2E/DX2                !
 ! A36   A(13,12,31)           122.0331         estimate D2E/DX2                !
 ! A37   A(12,13,14)           121.0164         estimate D2E/DX2                !
 ! A38   A(12,13,16)           118.3128         estimate D2E/DX2                !
 ! A39   A(14,13,16)           120.6708         estimate D2E/DX2                !
 ! A40   A(5,14,13)            121.0169         estimate D2E/DX2                !
 ! A41   A(5,14,15)            118.3126         estimate D2E/DX2                !
 ! A42   A(13,14,15)           120.6705         estimate D2E/DX2                !
 ! A43   A(7,19,20)            118.9834         estimate D2E/DX2                !
 ! A44   A(7,19,30)            118.9831         estimate D2E/DX2                !
 ! A45   A(20,19,30)           122.0335         estimate D2E/DX2                !
 ! A46   A(19,20,21)           121.0165         estimate D2E/DX2                !
 ! A47   A(19,20,23)           118.3126         estimate D2E/DX2                !
 ! A48   A(21,20,23)           120.6708         estimate D2E/DX2                !
 ! A49   A(20,21,22)           121.0166         estimate D2E/DX2                !
 ! A50   A(20,21,24)           120.6708         estimate D2E/DX2                !
 ! A51   A(22,21,24)           118.3126         estimate D2E/DX2                !
 ! A52   A(10,22,21)           118.9839         estimate D2E/DX2                !
 ! A53   A(10,22,27)           118.983          estimate D2E/DX2                !
 ! A54   A(21,22,27)           122.0331         estimate D2E/DX2                !
 ! A55   A(11,25,26)           118.312          estimate D2E/DX2                !
 ! A56   A(11,25,27)           121.0175         estimate D2E/DX2                !
 ! A57   A(26,25,27)           120.6705         estimate D2E/DX2                !
 ! A58   A(22,27,25)           121.0163         estimate D2E/DX2                !
 ! A59   A(22,27,28)           118.3138         estimate D2E/DX2                !
 ! A60   A(25,27,28)           120.6698         estimate D2E/DX2                !
 ! D1    D(6,1,2,3)             -0.0001         estimate D2E/DX2                !
 ! D2    D(6,1,2,29)          -179.9926         estimate D2E/DX2                !
 ! D3    D(17,1,2,3)           179.9996         estimate D2E/DX2                !
 ! D4    D(17,1,2,29)            0.0072         estimate D2E/DX2                !
 ! D5    D(2,1,6,5)             -0.0027         estimate D2E/DX2                !
 ! D6    D(2,1,6,18)          -179.9999         estimate D2E/DX2                !
 ! D7    D(17,1,6,5)           179.9975         estimate D2E/DX2                !
 ! D8    D(17,1,6,18)            0.0003         estimate D2E/DX2                !
 ! D9    D(1,2,3,4)              0.0081         estimate D2E/DX2                !
 ! D10   D(1,2,3,7)            179.9978         estimate D2E/DX2                !
 ! D11   D(29,2,3,4)          -179.9986         estimate D2E/DX2                !
 ! D12   D(29,2,3,7)            -0.009          estimate D2E/DX2                !
 ! D13   D(2,3,4,5)             -0.0135         estimate D2E/DX2                !
 ! D14   D(2,3,4,8)            179.983          estimate D2E/DX2                !
 ! D15   D(7,3,4,5)            179.9969         estimate D2E/DX2                !
 ! D16   D(7,3,4,8)             -0.0067         estimate D2E/DX2                !
 ! D17   D(2,3,7,10)          -179.9722         estimate D2E/DX2                !
 ! D18   D(2,3,7,19)             0.0222         estimate D2E/DX2                !
 ! D19   D(4,3,7,10)             0.0174         estimate D2E/DX2                !
 ! D20   D(4,3,7,19)          -179.9881         estimate D2E/DX2                !
 ! D21   D(3,4,5,6)              0.0106         estimate D2E/DX2                !
 ! D22   D(3,4,5,14)          -179.9952         estimate D2E/DX2                !
 ! D23   D(8,4,5,6)           -179.9858         estimate D2E/DX2                !
 ! D24   D(8,4,5,14)             0.0083         estimate D2E/DX2                !
 ! D25   D(3,4,8,9)             -0.0094         estimate D2E/DX2                !
 ! D26   D(3,4,8,12)          -179.9982         estimate D2E/DX2                !
 ! D27   D(5,4,8,9)            179.9871         estimate D2E/DX2                !
 ! D28   D(5,4,8,12)            -0.0018         estimate D2E/DX2                !
 ! D29   D(4,5,6,1)             -0.0026         estimate D2E/DX2                !
 ! D30   D(4,5,6,18)           179.9947         estimate D2E/DX2                !
 ! D31   D(14,5,6,1)          -179.9966         estimate D2E/DX2                !
 ! D32   D(14,5,6,18)            0.0007         estimate D2E/DX2                !
 ! D33   D(4,5,14,13)           -0.0062         estimate D2E/DX2                !
 ! D34   D(4,5,14,15)          179.9964         estimate D2E/DX2                !
 ! D35   D(6,5,14,13)          179.9878         estimate D2E/DX2                !
 ! D36   D(6,5,14,15)           -0.0096         estimate D2E/DX2                !
 ! D37   D(3,7,10,9)            -0.0121         estimate D2E/DX2                !
 ! D38   D(3,7,10,22)          179.9831         estimate D2E/DX2                !
 ! D39   D(19,7,10,9)          179.9934         estimate D2E/DX2                !
 ! D40   D(19,7,10,22)          -0.0114         estimate D2E/DX2                !
 ! D41   D(3,7,19,20)          179.9989         estimate D2E/DX2                !
 ! D42   D(3,7,19,30)           -0.0152         estimate D2E/DX2                !
 ! D43   D(10,7,19,20)          -0.0067         estimate D2E/DX2                !
 ! D44   D(10,7,19,30)         179.9793         estimate D2E/DX2                !
 ! D45   D(4,8,9,10)             0.0146         estimate D2E/DX2                !
 ! D46   D(4,8,9,11)          -179.9822         estimate D2E/DX2                !
 ! D47   D(12,8,9,10)         -179.9965         estimate D2E/DX2                !
 ! D48   D(12,8,9,11)            0.0067         estimate D2E/DX2                !
 ! D49   D(4,8,12,13)           -0.0069         estimate D2E/DX2                !
 ! D50   D(4,8,12,31)          179.9922         estimate D2E/DX2                !
 ! D51   D(9,8,12,13)         -179.9958         estimate D2E/DX2                !
 ! D52   D(9,8,12,31)            0.0033         estimate D2E/DX2                !
 ! D53   D(8,9,10,7)            -0.0039         estimate D2E/DX2                !
 ! D54   D(8,9,10,22)         -179.9991         estimate D2E/DX2                !
 ! D55   D(11,9,10,7)          179.993          estimate D2E/DX2                !
 ! D56   D(11,9,10,22)          -0.0022         estimate D2E/DX2                !
 ! D57   D(8,9,11,25)          179.9811         estimate D2E/DX2                !
 ! D58   D(8,9,11,32)           -0.0088         estimate D2E/DX2                !
 ! D59   D(10,9,11,25)          -0.0158         estimate D2E/DX2                !
 ! D60   D(10,9,11,32)         179.9943         estimate D2E/DX2                !
 ! D61   D(7,10,22,21)           0.0166         estimate D2E/DX2                !
 ! D62   D(7,10,22,27)        -179.9811         estimate D2E/DX2                !
 ! D63   D(9,10,22,21)        -179.9882         estimate D2E/DX2                !
 ! D64   D(9,10,22,27)           0.0141         estimate D2E/DX2                !
 ! D65   D(9,11,25,26)        -179.9744         estimate D2E/DX2                !
 ! D66   D(9,11,25,27)           0.0223         estimate D2E/DX2                !
 ! D67   D(32,11,25,26)          0.0152         estimate D2E/DX2                !
 ! D68   D(32,11,25,27)       -179.9881         estimate D2E/DX2                !
 ! D69   D(8,12,13,14)           0.0093         estimate D2E/DX2                !
 ! D70   D(8,12,13,16)        -179.9941         estimate D2E/DX2                !
 ! D71   D(31,12,13,14)       -179.9898         estimate D2E/DX2                !
 ! D72   D(31,12,13,16)          0.0068         estimate D2E/DX2                !
 ! D73   D(12,13,14,5)          -0.0027         estimate D2E/DX2                !
 ! D74   D(12,13,14,15)        179.9947         estimate D2E/DX2                !
 ! D75   D(16,13,14,5)        -179.9993         estimate D2E/DX2                !
 ! D76   D(16,13,14,15)         -0.0019         estimate D2E/DX2                !
 ! D77   D(7,19,20,21)           0.0199         estimate D2E/DX2                !
 ! D78   D(7,19,20,23)        -179.9904         estimate D2E/DX2                !
 ! D79   D(30,19,20,21)       -179.9656         estimate D2E/DX2                !
 ! D80   D(30,19,20,23)          0.0241         estimate D2E/DX2                !
 ! D81   D(19,20,21,22)         -0.0148         estimate D2E/DX2                !
 ! D82   D(19,20,21,24)        179.9861         estimate D2E/DX2                !
 ! D83   D(23,20,21,22)        179.9958         estimate D2E/DX2                !
 ! D84   D(23,20,21,24)         -0.0033         estimate D2E/DX2                !
 ! D85   D(20,21,22,10)         -0.0036         estimate D2E/DX2                !
 ! D86   D(20,21,22,27)        179.994          estimate D2E/DX2                !
 ! D87   D(24,21,22,10)        179.9955         estimate D2E/DX2                !
 ! D88   D(24,21,22,27)         -0.0069         estimate D2E/DX2                !
 ! D89   D(10,22,27,25)         -0.0079         estimate D2E/DX2                !
 ! D90   D(10,22,27,28)        179.9919         estimate D2E/DX2                !
 ! D91   D(21,22,27,25)        179.9945         estimate D2E/DX2                !
 ! D92   D(21,22,27,28)         -0.0057         estimate D2E/DX2                !
 ! D93   D(11,25,27,22)         -0.0105         estimate D2E/DX2                !
 ! D94   D(11,25,27,28)        179.9897         estimate D2E/DX2                !
 ! D95   D(26,25,27,22)        179.9862         estimate D2E/DX2                !
 ! D96   D(26,25,27,28)         -0.0136         estimate D2E/DX2                !
 --------------------------------------------------------------------------------
 Trust Radius=3.00D-01 FncErr=1.00D-07 GrdErr=1.00D-06 EigMax=2.50D+02 EigMin=1.00D-04
 Number of steps in this run=    192 maximum allowed number of steps=    192.
 GradGradGradGradGradGradGradGradGradGradGradGradGradGradGradGradGradGrad

 Leave Link  103 at Mon Apr 22 03:56:59 2024, MaxMem= 17179869184 cpu:               0.1 elap:               0.0
 (Enter /apps/gaussian/g16-c01-avx2/g16/l202.exe)
                          Input orientation:                          
 ---------------------------------------------------------------------
 Center     Atomic      Atomic             Coordinates (Angstroms)
 Number     Number       Type             X           Y           Z
 ---------------------------------------------------------------------
      1          6           0       -1.205690   -3.397535   -0.000151
      2          6           0        0.219572   -3.397535   -0.000151
      3          6           0        0.902150   -2.165284   -0.000151
      4          6           0        0.165723   -0.940503    0.000025
      5          6           0       -1.242725   -0.965515   -0.000088
      6          6           0       -1.911105   -2.224340   -0.000148
      7          6           0        2.331042   -2.139910   -0.000103
      8          6           0        0.858200    0.309639    0.000393
      9          6           0        2.287097    0.335024    0.000787
     10          6           0        3.023518   -0.889755    0.000497
     11          6           0        2.969647    1.567280    0.001528
     12          6           0        0.132307    1.516886    0.000604
     13          6           0       -1.292056    1.466303    0.000294
     14          6           0       -1.955370    0.268790   -0.000012
     15          1           0       -3.055651    0.236364   -0.000163
     16          1           0       -1.848193    2.416240    0.000363
     17          1           0       -1.727757   -4.366616   -0.000157
     18          1           0       -3.011841   -2.230994   -0.000146
     19          6           0        3.056922   -3.347148   -0.000529
     20          6           0        4.481288   -3.296562   -0.000496
     21          6           0        5.144603   -2.099050    0.000348
     22          6           0        4.431955   -0.864752    0.000905
     23          1           0        5.037420   -4.246493   -0.000993
     24          1           0        6.244883   -2.066620    0.000598
     25          6           0        4.394909    1.567285    0.002321
     26          1           0        4.916973    2.536386    0.003328
     27          6           0        5.100332    0.394085    0.001913
     28          1           0        6.201072    0.400768    0.002360
     29          1           0        0.860785   -4.291317   -0.000269
     30          1           0        2.506930   -4.299780   -0.000641
     31          1           0        0.682294    2.469522    0.001017
     32          1           0        2.386177    2.499783    0.001646
 ---------------------------------------------------------------------
                    Distance matrix (angstroms):
                    1          2          3          4          5
     1  C    0.000000
     2  C    1.425262   0.000000
     3  C    2.441604   1.408671   0.000000
     4  C    2.813855   2.457622   1.429130   0.000000
     5  C    2.432302   2.837787   2.457628   1.408670   0.000000
     6  C    1.368940   2.432318   2.813875   2.441608   1.425262
     7  C    3.753677   2.457626   1.429117   2.475315   3.761783
     8  C    4.242968   3.761780   2.475313   1.429118   2.457622
     9  C    5.111904   4.266926   2.858255   2.475318   3.761788
    10  C    4.916824   3.761791   2.475313   2.858246   4.266916
    11  C    6.487128   5.675588   4.266917   3.761777   4.915194
    12  C    5.093306   4.915196   3.761786   2.457616   2.837786
    13  C    4.864605   5.093323   4.242990   2.813865   2.432318
    14  C    3.742186   4.262899   3.753683   2.441603   1.425262
    15  H    4.077693   4.892066   4.629482   3.429616   2.175135
    16  H    5.849170   6.170546   5.343664   3.914535   3.435529
    17  H    1.100760   2.175134   3.429617   3.914526   3.435512
    18  H    2.150116   3.435527   3.914543   3.429618   2.175134
    19  C    4.262910   2.837797   2.457610   3.761778   4.915195
    20  C    5.687874   4.262912   3.753667   4.916820   6.180462
    21  C    6.481688   5.093328   4.242970   5.111896   6.487130
    22  C    6.180456   4.915197   3.761769   4.266905   5.675575
    23  H    6.300568   4.892074   4.629459   5.887529   7.085551
    24  H    7.568512   6.170552   5.343644   6.182582   7.568138
    25  C    7.484394   6.487132   5.111892   4.916810   6.180453
    26  H    8.526338   7.568157   6.182598   5.887541   7.085563
    27  C    7.358145   6.180470   4.916819   5.111897   6.487133
    28  H    8.323895   7.085581   5.887546   6.182593   7.568147
    29  H    2.251481   1.100000   2.126435   3.422143   3.935189
    30  H    3.820680   2.458872   2.670467   4.094630   5.017693
    31  H    6.163346   5.885275   4.640017   3.448929   3.937661
    32  H    6.905061   6.282718   4.895426   4.094629   5.017691
                    6          7          8          9         10
     6  C    0.000000
     7  C    4.242987   0.000000
     8  C    3.753678   2.858243   0.000000
     9  C    4.916833   2.475324   1.429123   0.000000
    10  C    5.111910   1.429129   2.475308   1.429125   0.000000
    11  C    6.180463   3.761792   2.457615   1.408662   2.457626
    12  C    4.262899   4.266918   1.408675   2.457624   3.761784
    13  C    3.742201   5.111909   2.441613   3.753682   4.916827
    14  C    2.493523   4.916825   2.813867   4.242984   5.111903
    15  H    2.713863   5.887541   3.914537   5.343659   6.182592
    16  H    4.641006   6.182597   3.429625   4.629480   5.887544
    17  H    2.150108   4.629478   5.343644   6.182594   5.887544
    18  H    1.100756   5.343659   4.629474   5.887546   6.182595
    19  C    5.093328   1.408661   4.266904   3.761785   2.457620
    20  C    6.481693   2.441598   5.111893   4.242982   2.813861
    21  C    7.056820   2.813858   4.916811   3.753672   2.441597
    22  C    6.487133   2.457614   3.761771   2.457616   1.408659
    23  H    7.236788   3.429603   6.182574   5.343648   3.914523
    24  H    8.157513   3.914527   5.887526   4.629467   3.429607
    25  C    7.358141   4.242976   3.753663   2.441586   2.813852
    26  H    8.323892   5.343669   4.629476   3.429614   3.914540
    27  C    7.484411   3.753678   4.242973   2.813855   2.441599
    28  H    8.526348   4.629491   5.343649   3.914527   3.429621
    29  H    3.457711   2.605802   4.600956   4.841218   4.030885
    30  H    4.881238   2.167020   4.895412   4.640015   3.448933
    31  H    5.362654   4.895430   2.167034   2.670482   4.094639
    32  H    6.386233   4.640021   2.670477   2.167026   3.448938
                   11         12         13         14         15
    11  C    0.000000
    12  C    2.837788   0.000000
    13  C    4.262899   1.425261   0.000000
    14  C    5.093316   2.432312   1.368950   0.000000
    15  H    6.170539   3.435522   2.150120   1.100759   0.000000
    16  H    4.892067   2.175136   1.100758   2.150123   2.491950
    17  H    7.568139   6.170530   5.849169   4.640991   4.790692
    18  H    7.085555   4.892062   4.077703   2.713863   2.467747
    19  C    4.915203   5.675579   6.487135   6.180459   7.085556
    20  C    5.093331   6.487135   7.484409   7.358145   8.323882
    21  C    4.262911   6.180462   7.358147   7.484403   8.526331
    22  C    2.837803   4.915198   6.180463   6.487129   7.568137
    23  H    6.170547   7.568135   8.526330   8.323875   9.251692
    24  H    4.892075   7.085556   8.323881   8.526329   9.581423
    25  C    1.425262   4.262900   5.687862   6.481677   7.568501
    26  H    2.175143   4.892077   6.300566   7.236788   8.297762
    27  C    2.432325   5.093325   6.481688   7.056815   8.157508
    28  H    3.435529   6.170545   7.568510   8.157510   9.258183
    29  H    6.226593   5.853708   6.146943   5.359599   5.986515
    30  H    5.885279   6.282710   6.905072   6.386232   7.177668
    31  H    2.458867   1.100000   2.214611   3.435184   4.354219
    32  H    1.100000   2.458865   3.820665   4.881225   5.893773
                   16         17         18         19         20
    16  H    0.000000
    17  H    6.783925   0.000000
    18  H    4.790706   2.491938   0.000000
    19  C    7.568143   4.892082   6.170550   0.000000
    20  C    8.526338   6.300576   7.568515   1.425264   0.000000
    21  C    8.323884   7.236794   8.157511   2.432316   1.368949
    22  C    7.085561   7.085556   7.568138   2.837782   2.432311
    23  H    9.581424   6.766243   8.297761   2.175131   1.100751
    24  H    9.251698   8.297769   9.258183   3.435527   2.150122
    25  C    6.300560   8.526325   8.323874   5.093316   4.864615
    26  H    6.766233   9.581434   9.251703   6.170557   5.849198
    27  C    7.236789   8.323886   8.526335   4.262904   3.742205
    28  H    8.297759   9.251718   9.581437   4.892092   4.077734
    29  H    7.233939   2.589637   4.386589   2.390496   3.754674
    30  H    8.004501   4.235214   5.893786   1.100000   2.214619
    31  H    2.531047   7.248526   5.978418   6.282715   6.905077
    32  H    4.235194   8.004492   7.177663   5.885279   6.163369
                   21         22         23         24         25
    21  C    0.000000
    22  C    1.425258   0.000000
    23  H    2.150117   3.435515   0.000000
    24  H    1.100758   2.175131   2.491950   0.000000
    25  C    3.742200   2.432320   5.849175   4.077704   0.000000
    26  H    4.641023   3.435548   6.783950   4.790722   1.100776
    27  C    2.493529   1.425272   4.641005   2.713866   1.368949
    28  H    2.713894   2.175159   4.790734   2.467778   2.150113
    29  H    4.812185   4.949202   4.176875   5.825614   6.842021
    30  H    3.435191   3.937657   2.531051   4.354228   6.163354
    31  H    6.386239   5.017703   8.004498   7.177673   3.820674
    32  H    5.362666   3.937678   7.248541   5.978432   2.214624
                   26         27         28         29         30
    26  H    0.000000
    27  C    2.150134   0.000000
    28  H    2.491942   1.100760   0.000000
    29  H    7.941674   6.318762   7.108750   0.000000
    30  H    7.248551   5.362659   5.978449   1.646166   0.000000
    31  H    4.235208   4.881240   5.893781   6.763194   7.010902
    32  H    2.531062   3.435201   4.354227   6.960306   6.800636
                   31         32
    31  H    0.000000
    32  H    1.704152   0.000000
 Stoichiometry    C20H12
 Framework group  C1[X(C20H12)]
 Deg. of freedom    90
 Full point group                 C1      NOp   1
 Largest Abelian subgroup         C1      NOp   1
 Largest concise Abelian subgroup C1      NOp   1
                         Standard orientation:                         
 ---------------------------------------------------------------------
 Center     Atomic      Atomic             Coordinates (Angstroms)
 Number     Number       Type             X           Y           Z
 ---------------------------------------------------------------------
      1          6           0       -2.842790   -2.434440    0.000658
      2          6           0       -1.417737   -2.458814    0.000437
      3          6           0       -0.714186   -1.238416   -0.000057
      4          6           0       -1.429560   -0.001220   -0.000152
      5          6           0       -2.838230   -0.002143   -0.000038
      6          6           0       -3.528039   -1.249354    0.000402
      7          6           0        0.714931   -1.237481   -0.000238
      8          6           0       -0.715806    1.236897   -0.000284
      9          6           0        0.713317    1.237842   -0.000120
     10          6           0        1.428685    0.000649   -0.000139
     11          6           0        1.416840    2.458246    0.000127
     12          6           0       -1.420947    2.456381   -0.000341
     13          6           0       -2.845967    2.430163   -0.000414
     14          6           0       -3.529663    1.244169   -0.000240
     15          1           0       -4.630337    1.230563   -0.000210
     16          1           0       -3.385778    3.389472   -0.000557
     17          1           0       -3.381353   -3.394452    0.001038
     18          1           0       -4.628728   -1.237183    0.000577
     19          6           0        1.420060   -2.456956   -0.000397
     20          6           0        2.845083   -2.430736   -0.000601
     21          6           0        3.528780   -1.244742   -0.000237
     22          6           0        2.837344    0.001563    0.000042
     23          1           0        3.384888   -3.390038   -0.000885
     24          1           0        4.629453   -1.231133   -0.000168
     25          6           0        2.841894    2.433878    0.000699
     26          1           0        3.380454    3.393910    0.001320
     27          6           0        3.527150    1.248786    0.000551
     28          1           0        4.627844    1.236644    0.000825
     29          1           0       -0.791902   -3.363430    0.000501
     30          1           0        0.853857   -3.400044   -0.000124
     31          1           0       -0.854750    3.399472   -0.000312
     32          1           0        0.849402    3.400591    0.000042
 ---------------------------------------------------------------------
 Rotational constants (GHZ):           0.6156440           0.3404150           0.2192066
 Leave Link  202 at Mon Apr 22 03:56:59 2024, MaxMem= 17179869184 cpu:               0.5 elap:               0.0
 (Enter /apps/gaussian/g16-c01-avx2/g16/l301.exe)
 Standard basis: STO-3G (5D, 7F)
 Ernie: Thresh=  0.10000D-02 Tol=  0.10000D-05 Strict=F.
 There are   112 symmetry adapted cartesian basis functions of A   symmetry.
 There are   112 symmetry adapted basis functions of A   symmetry.
   112 basis functions,   336 primitive gaussians,   112 cartesian basis functions
    66 alpha electrons       66 beta electrons
       nuclear repulsion energy      1371.1535598562 Hartrees.
 IExCor= 1009 DFT=T Ex+Corr=PBE1PBE ExCW=0 ScaHFX=  0.250000
 ScaDFX=  0.750000  0.750000  1.000000  1.000000 ScalE2=  1.000000  1.000000
 IRadAn=      5 IRanWt=     -1 IRanGd=            0 ICorTp=0 IEmpDi=  4
 NAtoms=   32 NActive=   32 NUniq=   32 SFac= 1.00D+00 NAtFMM=   60 NAOKFM=F Big=F
 Integral buffers will be    131072 words long.
 Raffenetti 2 integral format.
 Two-electron integral symmetry is turned on.
 Leave Link  301 at Mon Apr 22 03:56:59 2024, MaxMem= 17179869184 cpu:               0.6 elap:               0.0
 (Enter /apps/gaussian/g16-c01-avx2/g16/l302.exe)
 NPDir=0 NMtPBC=     1 NCelOv=     1 NCel=       1 NClECP=     1 NCelD=      1
         NCelK=      1 NCelE2=     1 NClLst=     1 CellRange=     0.0.
 One-electron integrals computed using PRISM.
 One-electron integral symmetry used in STVInt
 NBasis=   112 RedAO= T EigKep=  1.70D-01  NBF=   112
 NBsUse=   112 1.00D-06 EigRej= -1.00D+00 NBFU=   112
 Precomputing XC quadrature grid using
 IXCGrd= 4 IRadAn=           5 IRanWt=          -1 IRanGd=           0 AccXCQ= 0.00D+00.
 Generated NRdTot=       0 NPtTot=           0 NUsed=           0 NTot=          32
 NSgBfM=   110   110   110   110   110 MxSgAt=    32 MxSgA2=    32.
 Leave Link  302 at Mon Apr 22 03:57:00 2024, MaxMem= 17179869184 cpu:               1.5 elap:               0.1
 (Enter /apps/gaussian/g16-c01-avx2/g16/l303.exe)
 DipDrv:  MaxL=1.
 Leave Link  303 at Mon Apr 22 03:57:02 2024, MaxMem= 17179869184 cpu:               0.2 elap:               0.0
 (Enter /apps/gaussian/g16-c01-avx2/g16/l401.exe)
 ExpMin= 1.69D-01 ExpMax= 7.16D+01 ExpMxC= 7.16D+01 IAcc=3 IRadAn=         5 AccDes= 0.00D+00
 Harris functional with IExCor= 1009 and IRadAn=       5 diagonalized for initial guess.
 HarFok:  IExCor= 1009 AccDes= 0.00D+00 IRadAn=         5 IDoV= 1 UseB2=F ITyADJ=14
 ICtDFT=  3500011 ScaDFX=  1.000000  1.000000  1.000000  1.000000
 FoFCou: FMM=F IPFlag=           0 FMFlag=      100000 FMFlg1=           0
         NFxFlg=           0 DoJE=T BraDBF=F KetDBF=T FulRan=T
         wScrn=  0.000000 ICntrl=       500 IOpCl=  0 I1Cent=   200000004 NGrid=           0
         NMat0=    1 NMatS0=      1 NMatT0=    0 NMatD0=    1 NMtDS0=    0 NMtDT0=    0
 Petite list used in FoFCou.
 Harris En= -759.136202250003    
 JPrj=0 DoOrth=F DoCkMO=F.
 Leave Link  401 at Mon Apr 22 03:57:04 2024, MaxMem= 17179869184 cpu:               6.0 elap:               0.4
 (Enter /apps/gaussian/g16-c01-avx2/g16/l502.exe)
 Integral symmetry usage will be decided dynamically.
 Closed shell SCF:
 Using DIIS extrapolation, IDIIS=  1040.
 NGot= 17179869184 LenX= 17179839638 LenY= 17179826653
 Requested convergence on RMS density matrix=1.00D-08 within 128 cycles.
 Requested convergence on MAX density matrix=1.00D-06.
 Requested convergence on             energy=1.00D-06.
 No special actions if energy rises.
 Fock matrices will be formed incrementally for  20 cycles.
 Integral accuracy reduced to 1.0D-05 until final iterations.

 Cycle   1  Pass 0  IDiag  1:
 FoFJK:  IHMeth= 1 ICntrl=       0 DoSepK=F KAlg= 0 I1Cent=           0 FoldK=F
 IRaf= 850000000 NMat=       1 IRICut=       1 DoRegI=T DoRafI=F ISym2E= 0 IDoP0=0 IntGTp=1.
 FoFCou: FMM=F IPFlag=           0 FMFlag=      100000 FMFlg1=           0
         NFxFlg=           0 DoJE=F BraDBF=F KetDBF=F FulRan=T
         wScrn=  0.000000 ICntrl=         0 IOpCl=  0 I1Cent=           0 NGrid=           0
         NMat0=    1 NMatS0=      1 NMatT0=    0 NMatD0=    1 NMtDS0=    0 NMtDT0=    0
 Symmetry not used in FoFCou.
 E= -759.143615290627    
 DIIS: error= 1.62D-02 at cycle   1 NSaved=   1.
 NSaved= 1 IEnMin= 1 EnMin= -759.143615290627     IErMin= 1 ErrMin= 1.62D-02
 ErrMax= 1.62D-02  0.00D+00 EMaxC= 1.00D-01 BMatC= 5.56D-02 BMatP= 5.56D-02
 IDIUse=3 WtCom= 8.38D-01 WtEn= 1.62D-01
 Coeff-Com:  0.100D+01
 Coeff-En:   0.100D+01
 Coeff:      0.100D+01
 Gap=     0.133 Goal=   None    Shift=    0.000
 GapD=    0.133 DampG=1.000 DampE=0.500 DampFc=0.5000 IDamp=-1.
 Damping current iteration by 5.00D-01
 RMSDP=4.66D-03 MaxDP=8.94D-02              OVMax= 0.00D+00

 Cycle   2  Pass 0  IDiag  1:
 RMSU=  2.33D-03    CP:  9.98D-01
 E= -759.182161035202     Delta-E=       -0.038545744575 Rises=F Damp=T
 DIIS: error= 7.92D-03 at cycle   2 NSaved=   2.
 NSaved= 2 IEnMin= 2 EnMin= -759.182161035202     IErMin= 2 ErrMin= 7.92D-03
 ErrMax= 7.92D-03  0.00D+00 EMaxC= 1.00D-01 BMatC= 6.30D-03 BMatP= 5.56D-02
 IDIUse=3 WtCom= 9.21D-01 WtEn= 7.92D-02
 Coeff-Com: -0.349D+00 0.135D+01
 Coeff-En:   0.000D+00 0.100D+01
 Coeff:     -0.321D+00 0.132D+01
 Gap=     0.134 Goal=   None    Shift=    0.000
 RMSDP=1.28D-03 MaxDP=1.95D-02 DE=-3.85D-02 OVMax= 0.00D+00

 Cycle   3  Pass 0  IDiag  1:
 RMSU=  1.12D-03    CP:  9.99D-01  1.27D+00
 E= -759.209443386027     Delta-E=       -0.027282350825 Rises=F Damp=F
 DIIS: error= 7.79D-03 at cycle   3 NSaved=   3.
 NSaved= 3 IEnMin= 3 EnMin= -759.209443386027     IErMin= 3 ErrMin= 7.79D-03
 ErrMax= 7.79D-03  0.00D+00 EMaxC= 1.00D-01 BMatC= 3.47D-03 BMatP= 6.30D-03
 IDIUse=3 WtCom= 9.22D-01 WtEn= 7.79D-02
 Coeff-Com: -0.234D+00 0.751D+00 0.483D+00
 Coeff-En:   0.000D+00 0.000D+00 0.100D+01
 Coeff:     -0.216D+00 0.693D+00 0.523D+00
 Gap=     0.134 Goal=   None    Shift=    0.000
 RMSDP=1.03D-03 MaxDP=2.18D-02 DE=-2.73D-02 OVMax= 0.00D+00

 Cycle   4  Pass 0  IDiag  1:
 RMSU=  3.53D-04    CP:  9.99D-01  1.33D+00  1.46D-01
 E= -759.213321286153     Delta-E=       -0.003877900126 Rises=F Damp=F
 DIIS: error= 3.65D-03 at cycle   4 NSaved=   4.
 NSaved= 4 IEnMin= 4 EnMin= -759.213321286153     IErMin= 4 ErrMin= 3.65D-03
 ErrMax= 3.65D-03  0.00D+00 EMaxC= 1.00D-01 BMatC= 7.11D-04 BMatP= 3.47D-03
 IDIUse=3 WtCom= 9.63D-01 WtEn= 3.65D-02
 Coeff-Com: -0.317D-01 0.675D-01 0.322D+00 0.642D+00
 Coeff-En:   0.000D+00 0.000D+00 0.212D+00 0.788D+00
 Coeff:     -0.306D-01 0.650D-01 0.318D+00 0.647D+00
 Gap=     0.134 Goal=   None    Shift=    0.000
 RMSDP=3.36D-04 MaxDP=6.87D-03 DE=-3.88D-03 OVMax= 0.00D+00

 Cycle   5  Pass 0  IDiag  1:
 RMSU=  7.00D-05    CP:  9.99D-01  1.33D+00  4.18D-01  6.50D-01
 E= -759.214312388245     Delta-E=       -0.000991102092 Rises=F Damp=F
 DIIS: error= 3.65D-04 at cycle   5 NSaved=   5.
 NSaved= 5 IEnMin= 5 EnMin= -759.214312388245     IErMin= 5 ErrMin= 3.65D-04
 ErrMax= 3.65D-04  0.00D+00 EMaxC= 1.00D-01 BMatC= 1.11D-05 BMatP= 7.11D-04
 IDIUse=3 WtCom= 9.96D-01 WtEn= 3.65D-03
 Coeff-Com: -0.133D-01 0.247D-01 0.166D+00 0.352D+00 0.471D+00
 Coeff-En:   0.000D+00 0.000D+00 0.000D+00 0.000D+00 0.100D+01
 Coeff:     -0.133D-01 0.246D-01 0.165D+00 0.351D+00 0.473D+00
 Gap=     0.134 Goal=   None    Shift=    0.000
 RMSDP=3.90D-05 MaxDP=9.99D-04 DE=-9.91D-04 OVMax= 0.00D+00

 Cycle   6  Pass 0  IDiag  1:
 RMSU=  1.51D-05    CP:  9.99D-01  1.33D+00  4.14D-01  6.81D-01  5.16D-01
 E= -759.214325779570     Delta-E=       -0.000013391325 Rises=F Damp=F
 DIIS: error= 4.95D-05 at cycle   6 NSaved=   6.
 NSaved= 6 IEnMin= 6 EnMin= -759.214325779570     IErMin= 6 ErrMin= 4.95D-05
 ErrMax= 4.95D-05  0.00D+00 EMaxC= 1.00D-01 BMatC= 1.79D-07 BMatP= 1.11D-05
 IDIUse=1 WtCom= 1.00D+00 WtEn= 0.00D+00
 Coeff-Com: -0.369D-02 0.657D-02 0.484D-01 0.103D+00 0.175D+00 0.671D+00
 Coeff:     -0.369D-02 0.657D-02 0.484D-01 0.103D+00 0.175D+00 0.671D+00
 Gap=     0.134 Goal=   None    Shift=    0.000
 RMSDP=8.11D-06 MaxDP=1.80D-04 DE=-1.34D-05 OVMax= 0.00D+00

 Initial convergence to 1.0D-05 achieved.  Increase integral accuracy.
 Cycle   7  Pass 1  IDiag  1:
 E= -759.214365931517     Delta-E=       -0.000040151947 Rises=F Damp=F
 DIIS: error= 3.26D-05 at cycle   1 NSaved=   1.
 NSaved= 1 IEnMin= 1 EnMin= -759.214365931517     IErMin= 1 ErrMin= 3.26D-05
 ErrMax= 3.26D-05  0.00D+00 EMaxC= 1.00D-01 BMatC= 7.91D-08 BMatP= 7.91D-08
 IDIUse=1 WtCom= 1.00D+00 WtEn= 0.00D+00
 Coeff-Com:  0.100D+01
 Coeff:      0.100D+01
 Gap=     0.134 Goal=   None    Shift=    0.000
 RMSDP=8.11D-06 MaxDP=1.80D-04 DE=-4.02D-05 OVMax= 0.00D+00

 Cycle   8  Pass 1  IDiag  1:
 RMSU=  8.45D-06    CP:  1.00D+00
 E= -759.214365784190     Delta-E=        0.000000147327 Rises=F Damp=F
 DIIS: error= 4.82D-05 at cycle   2 NSaved=   2.
 NSaved= 2 IEnMin= 1 EnMin= -759.214365931517     IErMin= 1 ErrMin= 3.26D-05
 ErrMax= 4.82D-05  0.00D+00 EMaxC= 1.00D-01 BMatC= 1.93D-07 BMatP= 7.91D-08
 IDIUse=1 WtCom= 1.00D+00 WtEn= 0.00D+00
 Coeff-Com:  0.611D+00 0.389D+00
 Coeff:      0.611D+00 0.389D+00
 Gap=     0.134 Goal=   None    Shift=    0.000
 RMSDP=5.28D-06 MaxDP=1.12D-04 DE= 1.47D-07 OVMax= 0.00D+00

 Cycle   9  Pass 1  IDiag  1:
 RMSU=  1.31D-06    CP:  1.00D+00  3.95D-01
 E= -759.214366041621     Delta-E=       -0.000000257431 Rises=F Damp=F
 DIIS: error= 3.31D-06 at cycle   3 NSaved=   3.
 NSaved= 3 IEnMin= 3 EnMin= -759.214366041621     IErMin= 3 ErrMin= 3.31D-06
 ErrMax= 3.31D-06  0.00D+00 EMaxC= 1.00D-01 BMatC= 1.03D-09 BMatP= 7.91D-08
 IDIUse=1 WtCom= 1.00D+00 WtEn= 0.00D+00
 Coeff-Com:  0.200D+00 0.144D+00 0.657D+00
 Coeff:      0.200D+00 0.144D+00 0.657D+00
 Gap=     0.134 Goal=   None    Shift=    0.000
 RMSDP=5.34D-07 MaxDP=1.64D-05 DE=-2.57D-07 OVMax= 0.00D+00

 Cycle  10  Pass 1  IDiag  1:
 RMSU=  4.74D-07    CP:  1.00D+00  4.19D-01  8.93D-01
 E= -759.214366042774     Delta-E=       -0.000000001153 Rises=F Damp=F
 DIIS: error= 1.70D-06 at cycle   4 NSaved=   4.
 NSaved= 4 IEnMin= 4 EnMin= -759.214366042774     IErMin= 4 ErrMin= 1.70D-06
 ErrMax= 1.70D-06  0.00D+00 EMaxC= 1.00D-01 BMatC= 2.25D-10 BMatP= 1.03D-09
 IDIUse=1 WtCom= 1.00D+00 WtEn= 0.00D+00
 Coeff-Com: -0.195D-01-0.399D-02 0.321D+00 0.702D+00
 Coeff:     -0.195D-01-0.399D-02 0.321D+00 0.702D+00
 Gap=     0.134 Goal=   None    Shift=    0.000
 RMSDP=2.18D-07 MaxDP=4.91D-06 DE=-1.15D-09 OVMax= 0.00D+00

 Cycle  11  Pass 1  IDiag  1:
 RMSU=  1.26D-07    CP:  1.00D+00  4.18D-01  9.97D-01  7.61D-01
 E= -759.214366043032     Delta-E=       -0.000000000258 Rises=F Damp=F
 DIIS: error= 7.99D-07 at cycle   5 NSaved=   5.
 NSaved= 5 IEnMin= 5 EnMin= -759.214366043032     IErMin= 5 ErrMin= 7.99D-07
 ErrMax= 7.99D-07  0.00D+00 EMaxC= 1.00D-01 BMatC= 3.11D-11 BMatP= 2.25D-10
 IDIUse=1 WtCom= 1.00D+00 WtEn= 0.00D+00
 Coeff-Com: -0.187D-01-0.738D-02 0.177D+00 0.438D+00 0.411D+00
 Coeff:     -0.187D-01-0.738D-02 0.177D+00 0.438D+00 0.411D+00
 Gap=     0.134 Goal=   None    Shift=    0.000
 RMSDP=7.68D-08 MaxDP=1.71D-06 DE=-2.58D-10 OVMax= 0.00D+00

 Cycle  12  Pass 1  IDiag  1:
 RMSU=  4.65D-08    CP:  1.00D+00  4.19D-01  1.00D+00  8.04D-01  5.57D-01
 E= -759.214366043076     Delta-E=       -0.000000000044 Rises=F Damp=F
 DIIS: error= 1.52D-07 at cycle   6 NSaved=   6.
 NSaved= 6 IEnMin= 6 EnMin= -759.214366043076     IErMin= 6 ErrMin= 1.52D-07
 ErrMax= 1.52D-07  0.00D+00 EMaxC= 1.00D-01 BMatC= 7.01D-13 BMatP= 3.11D-11
 IDIUse=1 WtCom= 1.00D+00 WtEn= 0.00D+00
 Coeff-Com:  0.971D-04-0.899D-03-0.328D-01-0.597D-01 0.912D-01 0.100D+01
 Coeff:      0.971D-04-0.899D-03-0.328D-01-0.597D-01 0.912D-01 0.100D+01
 Gap=     0.134 Goal=   None    Shift=    0.000
 RMSDP=1.97D-08 MaxDP=3.02D-07 DE=-4.37D-11 OVMax= 0.00D+00

 Cycle  13  Pass 1  IDiag  1:
 RMSU=  6.49D-09    CP:  1.00D+00  4.19D-01  1.01D+00  8.17D-01  6.60D-01
                    CP:  1.05D+00
 E= -759.214366043075     Delta-E=        0.000000000001 Rises=F Damp=F
 DIIS: error= 1.30D-08 at cycle   7 NSaved=   7.
 NSaved= 7 IEnMin= 6 EnMin= -759.214366043076     IErMin= 7 ErrMin= 1.30D-08
 ErrMax= 1.30D-08  0.00D+00 EMaxC= 1.00D-01 BMatC= 2.95D-14 BMatP= 7.01D-13
 IDIUse=1 WtCom= 1.00D+00 WtEn= 0.00D+00
 Coeff-Com:  0.534D-03-0.113D-03-0.169D-01-0.337D-01 0.228D-01 0.368D+00
 Coeff-Com:  0.659D+00
 Coeff:      0.534D-03-0.113D-03-0.169D-01-0.337D-01 0.228D-01 0.368D+00
 Coeff:      0.659D+00
 Gap=     0.134 Goal=   None    Shift=    0.000
 RMSDP=3.02D-09 MaxDP=5.83D-08 DE= 9.09D-13 OVMax= 0.00D+00

 SCF Done:  E(RPBE1PBE) =  -759.214366043     A.U. after   13 cycles
            NFock= 13  Conv=0.30D-08     -V/T= 2.0159
 KE= 7.473315926137D+02 PE=-4.502133488773D+03 EE= 1.624433970260D+03
 Leave Link  502 at Mon Apr 22 03:57:07 2024, MaxMem= 17179869184 cpu:              39.5 elap:               2.5
 (Enter /apps/gaussian/g16-c01-avx2/g16/l601.exe)
 Copying SCF densities to generalized density rwf, IOpCl= 0 IROHF=0.

 **********************************************************************

            Population analysis using the SCF Density.

 **********************************************************************

 Orbital symmetries:
       Occupied  (A) (A) (A) (A) (A) (A) (A) (A) (A) (A) (A) (A)
                 (A) (A) (A) (A) (A) (A) (A) (A) (A) (A) (A) (A)
                 (A) (A) (A) (A) (A) (A) (A) (A) (A) (A) (A) (A)
                 (A) (A) (A) (A) (A) (A) (A) (A) (A) (A) (A) (A)
                 (A) (A) (A) (A) (A) (A) (A) (A) (A) (A) (A) (A)
                 (A) (A) (A) (A) (A) (A)
       Virtual   (A) (A) (A) (A) (A) (A) (A) (A) (A) (A) (A) (A)
                 (A) (A) (A) (A) (A) (A) (A) (A) (A) (A) (A) (A)
                 (A) (A) (A) (A) (A) (A) (A) (A) (A) (A) (A) (A)
                 (A) (A) (A) (A) (A) (A) (A) (A) (A) (A)
 The electronic state is 1-A.
 Alpha  occ. eigenvalues --  -10.06275 -10.06250 -10.06193 -10.06152 -10.06125
 Alpha  occ. eigenvalues --  -10.06087 -10.06049 -10.05958 -10.05112 -10.05023
 Alpha  occ. eigenvalues --  -10.05002 -10.04987 -10.04850 -10.04817 -10.04806
 Alpha  occ. eigenvalues --  -10.04798 -10.04708 -10.04679 -10.04666 -10.04604
 Alpha  occ. eigenvalues --   -0.87569  -0.84444  -0.81685  -0.78896  -0.78666
 Alpha  occ. eigenvalues --   -0.73120  -0.72737  -0.71695  -0.71093  -0.66361
 Alpha  occ. eigenvalues --   -0.61826  -0.61305  -0.60129  -0.57909  -0.56274
 Alpha  occ. eigenvalues --   -0.51554  -0.51230  -0.50474  -0.47749  -0.46137
 Alpha  occ. eigenvalues --   -0.44953  -0.43791  -0.42955  -0.41903  -0.39618
 Alpha  occ. eigenvalues --   -0.38427  -0.38287  -0.38221  -0.38205  -0.36784
 Alpha  occ. eigenvalues --   -0.35007  -0.34332  -0.34001  -0.33454  -0.31919
 Alpha  occ. eigenvalues --   -0.31541  -0.30913  -0.27540  -0.27451  -0.27429
 Alpha  occ. eigenvalues --   -0.27282  -0.20819  -0.20165  -0.20033  -0.19538
 Alpha  occ. eigenvalues --   -0.12529
 Alpha virt. eigenvalues --    0.00913   0.08466   0.09356   0.09363   0.10220
 Alpha virt. eigenvalues --    0.18736   0.18837   0.23740   0.29125   0.32478
 Alpha virt. eigenvalues --    0.34607   0.35699   0.36444   0.38819   0.39153
 Alpha virt. eigenvalues --    0.40202   0.40777   0.42990   0.44301   0.44368
 Alpha virt. eigenvalues --    0.45971   0.46275   0.47916   0.48393   0.49922
 Alpha virt. eigenvalues --    0.50308   0.52867   0.53966   0.55326   0.57540
 Alpha virt. eigenvalues --    0.59709   0.60257   0.61433   0.62039   0.62965
 Alpha virt. eigenvalues --    0.65201   0.69771   0.70550   0.70715   0.72368
 Alpha virt. eigenvalues --    0.76985   0.77423   0.81891   0.83072   0.88345
 Alpha virt. eigenvalues --    0.88926
          Condensed to atoms (all electrons):
               1          2          3          4          5          6
     1  C    4.798214   0.480231  -0.029028  -0.010033  -0.029228   0.531760
     2  C    0.480231   4.835709   0.508314  -0.028399  -0.010156  -0.028997
     3  C   -0.029028   0.508314   4.784337   0.467721  -0.028554  -0.011160
     4  C   -0.010033  -0.028399   0.467721   4.780747   0.481963  -0.029880
     5  C   -0.029228  -0.010156  -0.028554   0.481963   4.764301   0.470476
     6  C    0.531760  -0.028997  -0.011160  -0.029880   0.470476   4.816047
     7  C    0.000941  -0.029877   0.436779  -0.028575   0.000893   0.000027
     8  C    0.000026   0.000823  -0.028388   0.467960  -0.028600   0.000985
     9  C   -0.000000   0.000020  -0.007506  -0.028503   0.000893  -0.000008
    10  C   -0.000008   0.000847  -0.028474  -0.008112   0.000019  -0.000000
    11  C    0.000000   0.000000   0.000020   0.000854  -0.000008   0.000000
    12  C    0.000000  -0.000008   0.000818  -0.028240  -0.010148   0.000026
    13  C   -0.000010   0.000000   0.000027  -0.010098  -0.029202   0.000886
    14  C    0.000887   0.000026   0.000983  -0.029882   0.470525  -0.029465
    15  H    0.000022  -0.000001  -0.000020   0.001353  -0.025413  -0.003766
    16  H    0.000000   0.000000   0.000001   0.000028   0.001480  -0.000018
    17  H    0.387652  -0.025605   0.001400   0.000027   0.001480  -0.025473
    18  H   -0.025401   0.001454   0.000032   0.001352  -0.025384   0.388317
    19  C    0.000077  -0.012130  -0.029864   0.000853  -0.000008  -0.000001
    20  C   -0.000000   0.000082   0.000949  -0.000008   0.000000   0.000000
    21  C    0.000000  -0.000001   0.000027  -0.000000   0.000000  -0.000000
    22  C    0.000000  -0.000008   0.000893   0.000019   0.000000   0.000000
    23  H   -0.000000   0.000001  -0.000019   0.000000  -0.000000   0.000000
    24  H   -0.000000   0.000000   0.000001   0.000000   0.000000   0.000000
    25  C   -0.000000   0.000000  -0.000000  -0.000008   0.000000  -0.000000
    26  H   -0.000000   0.000000   0.000000   0.000000  -0.000000   0.000000
    27  C   -0.000000   0.000000  -0.000008  -0.000000   0.000000   0.000000
    28  H    0.000000  -0.000000   0.000000   0.000000   0.000000  -0.000000
    29  H   -0.020593   0.389548  -0.027953   0.001389   0.000034   0.001220
    30  H    0.000021  -0.005565  -0.004189   0.000017  -0.000001  -0.000001
    31  H    0.000000   0.000000  -0.000019   0.001298   0.000033   0.000001
    32  H   -0.000000  -0.000000  -0.000001   0.000019  -0.000001   0.000000
               7          8          9         10         11         12
     1  C    0.000941   0.000026  -0.000000  -0.000008   0.000000   0.000000
     2  C   -0.029877   0.000823   0.000020   0.000847   0.000000  -0.000008
     3  C    0.436779  -0.028388  -0.007506  -0.028474   0.000020   0.000818
     4  C   -0.028575   0.467960  -0.028503  -0.008112   0.000854  -0.028240
     5  C    0.000893  -0.028600   0.000893   0.000019  -0.000008  -0.010148
     6  C    0.000027   0.000985  -0.000008  -0.000000   0.000000   0.000026
     7  C    4.780847  -0.007486  -0.028357   0.468080   0.000816   0.000020
     8  C   -0.007486   4.780828   0.436346  -0.028505  -0.030051   0.509571
     9  C   -0.028357   0.436346   4.780449   0.468071   0.509615  -0.030058
    10  C    0.468080  -0.028505   0.468071   4.780024  -0.028235   0.000855
    11  C    0.000816  -0.030051   0.509615  -0.028235   4.833561  -0.011572
    12  C    0.000020   0.509571  -0.030058   0.000855  -0.011572   4.833587
    13  C   -0.000000  -0.029067   0.000954  -0.000008   0.000076   0.479087
    14  C   -0.000008  -0.011082   0.000027  -0.000000  -0.000001  -0.029134
    15  H    0.000000   0.000031   0.000001   0.000000   0.000000   0.001462
    16  H    0.000000   0.001379  -0.000019   0.000000   0.000001  -0.025494
    17  H   -0.000019   0.000001   0.000000   0.000000   0.000000   0.000000
    18  H    0.000001  -0.000020   0.000000   0.000000  -0.000000  -0.000001
    19  C    0.509828   0.000020   0.000816  -0.028225  -0.000008   0.000000
    20  C   -0.029048  -0.000000   0.000027  -0.010099   0.000000   0.000000
    21  C   -0.011082  -0.000008   0.000985  -0.029886   0.000026   0.000000
    22  C   -0.028573   0.000893  -0.028579   0.481906  -0.010151  -0.000008
    23  H    0.001378   0.000000   0.000001   0.000028   0.000000   0.000000
    24  H    0.000031   0.000000  -0.000020   0.001353  -0.000001  -0.000000
    25  C    0.000027   0.000954  -0.029067  -0.010096   0.479067   0.000076
    26  H    0.000001  -0.000019   0.001379   0.000028  -0.025492   0.000001
    27  C    0.000985   0.000027  -0.011079  -0.029890  -0.029139  -0.000001
    28  H   -0.000020   0.000001   0.000031   0.001353   0.001462   0.000000
    29  H   -0.004998  -0.000021  -0.000001   0.000025  -0.000000   0.000000
    30  H   -0.025114  -0.000001  -0.000019   0.001296   0.000000  -0.000000
    31  H   -0.000001  -0.025126  -0.004207   0.000019  -0.004741   0.389606
    32  H   -0.000019  -0.004209  -0.025122   0.001298   0.389629  -0.004738
              13         14         15         16         17         18
     1  C   -0.000010   0.000887   0.000022   0.000000   0.387652  -0.025401
     2  C    0.000000   0.000026  -0.000001   0.000000  -0.025605   0.001454
     3  C    0.000027   0.000983  -0.000020   0.000001   0.001400   0.000032
     4  C   -0.010098  -0.029882   0.001353   0.000028   0.000027   0.001352
     5  C   -0.029202   0.470525  -0.025413   0.001480   0.001480  -0.025384
     6  C    0.000886  -0.029465  -0.003766  -0.000018  -0.025473   0.388317
     7  C   -0.000000  -0.000008   0.000000   0.000000  -0.000019   0.000001
     8  C   -0.029067  -0.011082   0.000031   0.001379   0.000001  -0.000020
     9  C    0.000954   0.000027   0.000001  -0.000019   0.000000   0.000000
    10  C   -0.000008  -0.000000   0.000000   0.000000   0.000000   0.000000
    11  C    0.000076  -0.000001   0.000000   0.000001   0.000000  -0.000000
    12  C    0.479087  -0.029134   0.001462  -0.025494   0.000000  -0.000001
    13  C    4.801590   0.531442  -0.025423   0.388037   0.000000   0.000022
    14  C    0.531442   4.816646   0.388222  -0.025519  -0.000018  -0.003759
    15  H   -0.025423   0.388222   0.582120  -0.004123  -0.000002   0.000973
    16  H    0.388037  -0.025519  -0.004123   0.582250  -0.000000  -0.000002
    17  H    0.000000  -0.000018  -0.000002  -0.000000   0.581746  -0.004135
    18  H    0.000022  -0.003759   0.000973  -0.000002  -0.004135   0.581532
    19  C    0.000000   0.000000  -0.000000   0.000000   0.000001   0.000000
    20  C   -0.000000  -0.000000   0.000000  -0.000000  -0.000000  -0.000000
    21  C   -0.000000   0.000000  -0.000000   0.000000   0.000000   0.000000
    22  C    0.000000   0.000000   0.000000  -0.000000  -0.000000   0.000000
    23  H   -0.000000   0.000000  -0.000000   0.000000  -0.000000  -0.000000
    24  H    0.000000  -0.000000   0.000000  -0.000000  -0.000000  -0.000000
    25  C   -0.000000   0.000000  -0.000000  -0.000000  -0.000000   0.000000
    26  H   -0.000000   0.000000  -0.000000  -0.000000   0.000000  -0.000000
    27  C    0.000000  -0.000000   0.000000   0.000000   0.000000  -0.000000
    28  H   -0.000000   0.000000  -0.000000  -0.000000  -0.000000   0.000000
    29  H    0.000000   0.000001  -0.000000   0.000000  -0.002835  -0.000028
    30  H   -0.000000   0.000000  -0.000000   0.000000   0.000008   0.000000
    31  H   -0.022896   0.001292  -0.000031  -0.003225   0.000000  -0.000000
    32  H    0.000015  -0.000001   0.000000   0.000007   0.000000  -0.000000
              19         20         21         22         23         24
     1  C    0.000077  -0.000000   0.000000   0.000000  -0.000000  -0.000000
     2  C   -0.012130   0.000082  -0.000001  -0.000008   0.000001   0.000000
     3  C   -0.029864   0.000949   0.000027   0.000893  -0.000019   0.000001
     4  C    0.000853  -0.000008  -0.000000   0.000019   0.000000   0.000000
     5  C   -0.000008   0.000000   0.000000   0.000000  -0.000000   0.000000
     6  C   -0.000001   0.000000  -0.000000   0.000000   0.000000   0.000000
     7  C    0.509828  -0.029048  -0.011082  -0.028573   0.001378   0.000031
     8  C    0.000020  -0.000000  -0.000008   0.000893   0.000000   0.000000
     9  C    0.000816   0.000027   0.000985  -0.028579   0.000001  -0.000020
    10  C   -0.028225  -0.010099  -0.029886   0.481906   0.000028   0.001353
    11  C   -0.000008   0.000000   0.000026  -0.010151   0.000000  -0.000001
    12  C    0.000000   0.000000   0.000000  -0.000008   0.000000  -0.000000
    13  C    0.000000  -0.000000  -0.000000   0.000000  -0.000000   0.000000
    14  C    0.000000  -0.000000   0.000000   0.000000   0.000000  -0.000000
    15  H   -0.000000   0.000000  -0.000000   0.000000  -0.000000   0.000000
    16  H    0.000000  -0.000000   0.000000  -0.000000   0.000000  -0.000000
    17  H    0.000001  -0.000000   0.000000  -0.000000  -0.000000  -0.000000
    18  H    0.000000  -0.000000   0.000000   0.000000  -0.000000  -0.000000
    19  C    4.834906   0.479074  -0.029138  -0.010155  -0.025499   0.001462
    20  C    0.479074   4.801316   0.531454  -0.029200   0.388038  -0.025419
    21  C   -0.029138   0.531454   4.816646   0.470511  -0.025512   0.388235
    22  C   -0.010155  -0.029200   0.470511   4.764192   0.001480  -0.025407
    23  H   -0.025499   0.388038  -0.025512   0.001480   0.582136  -0.004123
    24  H    0.001462  -0.025419   0.388235  -0.025407  -0.004123   0.581984
    25  C    0.000000  -0.000010   0.000886  -0.029197   0.000000   0.000022
    26  H    0.000000   0.000000  -0.000018   0.001480  -0.000000  -0.000002
    27  C    0.000026   0.000886  -0.029461   0.470517  -0.000018  -0.003764
    28  H   -0.000001   0.000022  -0.003764  -0.025411  -0.000002   0.000973
    29  H   -0.005453   0.000012  -0.000001  -0.000002   0.000008  -0.000000
    30  H    0.389324  -0.022856   0.001291   0.000034  -0.003226  -0.000031
    31  H   -0.000000  -0.000000   0.000000  -0.000001   0.000000  -0.000000
    32  H    0.000000   0.000000   0.000001   0.000033   0.000000  -0.000000
              25         26         27         28         29         30
     1  C   -0.000000  -0.000000  -0.000000   0.000000  -0.020593   0.000021
     2  C    0.000000   0.000000   0.000000  -0.000000   0.389548  -0.005565
     3  C   -0.000000   0.000000  -0.000008   0.000000  -0.027953  -0.004189
     4  C   -0.000008   0.000000  -0.000000   0.000000   0.001389   0.000017
     5  C    0.000000  -0.000000   0.000000   0.000000   0.000034  -0.000001
     6  C   -0.000000   0.000000   0.000000  -0.000000   0.001220  -0.000001
     7  C    0.000027   0.000001   0.000985  -0.000020  -0.004998  -0.025114
     8  C    0.000954  -0.000019   0.000027   0.000001  -0.000021  -0.000001
     9  C   -0.029067   0.001379  -0.011079   0.000031  -0.000001  -0.000019
    10  C   -0.010096   0.000028  -0.029890   0.001353   0.000025   0.001296
    11  C    0.479067  -0.025492  -0.029139   0.001462  -0.000000   0.000000
    12  C    0.000076   0.000001  -0.000001   0.000000   0.000000  -0.000000
    13  C   -0.000000  -0.000000   0.000000  -0.000000   0.000000  -0.000000
    14  C    0.000000   0.000000  -0.000000   0.000000   0.000001   0.000000
    15  H   -0.000000  -0.000000   0.000000  -0.000000  -0.000000  -0.000000
    16  H   -0.000000  -0.000000   0.000000  -0.000000   0.000000   0.000000
    17  H   -0.000000   0.000000   0.000000  -0.000000  -0.002835   0.000008
    18  H    0.000000  -0.000000  -0.000000   0.000000  -0.000028   0.000000
    19  C    0.000000   0.000000   0.000026  -0.000001  -0.005453   0.389324
    20  C   -0.000010   0.000000   0.000886   0.000022   0.000012  -0.022856
    21  C    0.000886  -0.000018  -0.029461  -0.003764  -0.000001   0.001291
    22  C   -0.029197   0.001480   0.470517  -0.025411  -0.000002   0.000034
    23  H    0.000000  -0.000000  -0.000018  -0.000002   0.000008  -0.003226
    24  H    0.000022  -0.000002  -0.003764   0.000973  -0.000000  -0.000031
    25  C    4.801508   0.388029   0.531441  -0.025422  -0.000000   0.000000
    26  H    0.388029   0.582199  -0.025517  -0.004123   0.000000   0.000000
    27  C    0.531441  -0.025517   4.816693   0.388232   0.000000   0.000001
    28  H   -0.025422  -0.004123   0.388232   0.582054  -0.000000  -0.000000
    29  H   -0.000000   0.000000   0.000000  -0.000000   0.583443   0.001527
    30  H    0.000000   0.000000   0.000001  -0.000000   0.001527   0.584030
    31  H    0.000015   0.000007  -0.000001   0.000000  -0.000000   0.000000
    32  H   -0.022892  -0.003224   0.001292  -0.000031   0.000000  -0.000000
              31         32
     1  C    0.000000  -0.000000
     2  C    0.000000  -0.000000
     3  C   -0.000019  -0.000001
     4  C    0.001298   0.000019
     5  C    0.000033  -0.000001
     6  C    0.000001   0.000000
     7  C   -0.000001  -0.000019
     8  C   -0.025126  -0.004209
     9  C   -0.004207  -0.025122
    10  C    0.000019   0.001298
    11  C   -0.004741   0.389629
    12  C    0.389606  -0.004738
    13  C   -0.022896   0.000015
    14  C    0.001292  -0.000001
    15  H   -0.000031   0.000000
    16  H   -0.003225   0.000007
    17  H    0.000000   0.000000
    18  H   -0.000000  -0.000000
    19  C   -0.000000   0.000000
    20  C   -0.000000   0.000000
    21  C    0.000000   0.000001
    22  C   -0.000001   0.000033
    23  H    0.000000   0.000000
    24  H   -0.000000  -0.000000
    25  C    0.000015  -0.022892
    26  H    0.000007  -0.003224
    27  C   -0.000001   0.001292
    28  H    0.000000  -0.000031
    29  H   -0.000000   0.000000
    30  H    0.000000  -0.000000
    31  H    0.583115   0.000845
    32  H    0.000845   0.582985
 Mulliken charges:
               1
     1  C   -0.085529
     2  C   -0.076310
     3  C   -0.007118
     4  C   -0.003860
     5  C   -0.005394
     6  C   -0.080977
     7  C   -0.007476
     8  C   -0.007261
     9  C   -0.007068
    10  C   -0.003663
    11  C   -0.075728
    12  C   -0.075706
    13  C   -0.085430
    14  C   -0.081182
    15  H    0.084593
    16  H    0.085217
    17  H    0.085774
    18  H    0.085048
    19  C   -0.075904
    20  C   -0.085221
    21  C   -0.081190
    22  C   -0.005267
    23  H    0.085328
    24  H    0.084705
    25  C   -0.085333
    26  H    0.085269
    27  C   -0.081223
    28  H    0.084645
    29  H    0.084677
    30  H    0.083454
    31  H    0.084016
    32  H    0.084112
 Sum of Mulliken charges =  -0.00000
 Mulliken charges with hydrogens summed into heavy atoms:
               1
     1  C    0.000246
     2  C    0.008367
     3  C   -0.007118
     4  C   -0.003860
     5  C   -0.005394
     6  C    0.004071
     7  C   -0.007476
     8  C   -0.007261
     9  C   -0.007068
    10  C   -0.003663
    11  C    0.008384
    12  C    0.008309
    13  C   -0.000212
    14  C    0.003411
    19  C    0.007550
    20  C    0.000107
    21  C    0.003515
    22  C   -0.005267
    25  C   -0.000063
    27  C    0.003422
 Electronic spatial extent (au):  <R**2>=           4750.0400
 Charge=             -0.0000 electrons
 Dipole moment (field-independent basis, Debye):
    X=              0.0204    Y=              0.0184    Z=              0.0005  Tot=              0.0275
 Quadrupole moment (field-independent basis, Debye-Ang):
   XX=            -94.6817   YY=            -93.6819   ZZ=           -109.9419
   XY=             -0.0921   XZ=              0.0005   YZ=              0.0000
 Traceless Quadrupole moment (field-independent basis, Debye-Ang):
   XX=              4.7535   YY=              5.7533   ZZ=            -10.5068
   XY=             -0.0921   XZ=              0.0005   YZ=              0.0000
 Octapole moment (field-independent basis, Debye-Ang**2):
  XXX=             -0.2576  YYY=              0.9200  ZZZ=             -0.0000  XYY=              0.4965
  XXY=             -0.0084  XXZ=              0.0100  XZZ=              0.0062  YZZ=              0.0054
  YYZ=              0.0056  XYZ=              0.0113
 Hexadecapole moment (field-independent basis, Debye-Ang**3):
 XXXX=          -3521.8066 YYYY=          -2030.1117 ZZZZ=            -89.4142 XXXY=              0.5417
 XXXZ=              0.0106 YYYX=             -2.0166 YYYZ=              0.0001 ZZZX=              0.0003
 ZZZY=             -0.0000 XXYY=           -940.2876 XXZZ=           -703.9026 YYZZ=           -411.4634
 XXYZ=              0.0105 YYXZ=              0.0030 ZZXY=             -0.0231
 N-N= 1.371153559856D+03 E-N=-4.502133486517D+03  KE= 7.473315926137D+02
 No NMR shielding tensors so no spin-rotation constants.
 Leave Link  601 at Mon Apr 22 03:57:07 2024, MaxMem= 17179869184 cpu:               0.7 elap:               0.1
 (Enter /apps/gaussian/g16-c01-avx2/g16/l701.exe)
 ... and contract with generalized density number  0.
 Compute integral first derivatives.
 Leave Link  701 at Mon Apr 22 03:57:07 2024, MaxMem= 17179869184 cpu:               0.8 elap:               0.1
 (Enter /apps/gaussian/g16-c01-avx2/g16/l702.exe)
 L702 exits ... SP integral derivatives will be done elsewhere.
 Leave Link  702 at Mon Apr 22 03:57:08 2024, MaxMem= 17179869184 cpu:               0.1 elap:               0.0
 (Enter /apps/gaussian/g16-c01-avx2/g16/l703.exe)
 Integral derivatives from FoFJK, PRISM(SPDF).
 Compute integral first derivatives, UseDBF=F ICtDFT=           0.
 Calling FoFJK, ICntrl=      2127 FMM=F ISym2X=0 I1Cent= 0 IOpClX= 0 NMat=1 NMatS=1 NMatT=0.
 FoFJK:  IHMeth= 1 ICntrl=    2127 DoSepK=F KAlg= 0 I1Cent=           0 FoldK=F
 IRaf=         0 NMat=       1 IRICut=       1 DoRegI=T DoRafI=F ISym2E= 0 IDoP0=0 IntGTp=1.
 FoFCou: FMM=F IPFlag=           0 FMFlag=      100000 FMFlg1=         800
         NFxFlg=           0 DoJE=F BraDBF=F KetDBF=F FulRan=T
         wScrn=  0.000000 ICntrl=      2127 IOpCl=  0 I1Cent=           0 NGrid=           0
         NMat0=    1 NMatS0=      1 NMatT0=    0 NMatD0=    1 NMtDS0=    0 NMtDT0=    0
 Symmetry not used in FoFCou.
 Leave Link  703 at Mon Apr 22 03:57:09 2024, MaxMem= 17179869184 cpu:              10.6 elap:               0.7
 (Enter /apps/gaussian/g16-c01-avx2/g16/l716.exe)
 Dipole        = 8.03985079D-03 7.23169552D-03 2.06215377D-04
 ***** Axes restored to original set *****
 -------------------------------------------------------------------
 Center     Atomic                   Forces (Hartrees/Bohr)
 Number     Number              X              Y              Z
 -------------------------------------------------------------------
      1        6           0.015449408   -0.026286129    0.000000136
      2        6          -0.002918282    0.023102709   -0.000016488
      3        6          -0.040480247   -0.020802007    0.000015823
      4        6           0.012473105    0.000638530   -0.000005300
      5        6          -0.014834446   -0.000198949    0.000004755
      6        6          -0.015828696    0.006281303   -0.000003191
      7        6           0.038178321   -0.022931412   -0.000006010
      8        6          -0.038608612    0.022722246   -0.000000154
      9        6           0.037529529    0.023937256    0.000010979
     10        6          -0.011828779   -0.000212792   -0.000004353
     11        6           0.010104334   -0.018326816    0.000013829
     12        6          -0.009380363   -0.018636236   -0.000012742
     13        6           0.013243352    0.023288124    0.000008851
     14        6          -0.016246880   -0.006617980   -0.000003555
     15        1           0.004306371    0.000623845    0.000000333
     16        1           0.000451498   -0.004223611    0.000000961
     17        1           0.000065955    0.004159273    0.000000044
     18        1           0.004376680   -0.000626863   -0.000001767
     19        6           0.010177245    0.019286532    0.000015705
     20        6          -0.013254308   -0.023361340    0.000002752
     21        6           0.016214976    0.006588365   -0.000001734
     22        6           0.014901565    0.000276665    0.000001321
     23        1          -0.000444641    0.004209445    0.000007057
     24        1          -0.004314808   -0.000628121   -0.000004492
     25        6          -0.014051954    0.022800986    0.000001460
     26        1          -0.000304877   -0.004245523   -0.000016990
     27        6           0.016468748   -0.006009698    0.000003079
     28        1          -0.004335113    0.000458068    0.000002823
     29        1          -0.019986322   -0.001517912    0.000006496
     30        1           0.012760613    0.003611448   -0.000020547
     31        1          -0.011877093   -0.003879728   -0.000008213
     32        1           0.011993722   -0.003479679    0.000009131
 -------------------------------------------------------------------
 Cartesian Forces:  Max     0.040480247 RMS     0.012913011
 Leave Link  716 at Mon Apr 22 03:57:10 2024, MaxMem= 17179869184 cpu:               0.2 elap:               0.0
 (Enter /apps/gaussian/g16-c01-avx2/g16/l103.exe)

 GradGradGradGradGradGradGradGradGradGradGradGradGradGradGradGradGradGrad
 Berny optimization.
 FormGI is forming the generalized inverse of G from B-inverse, IUseBI=4.
 Internal  Forces:  Max     0.061181889 RMS     0.009032146
 Search for a local minimum.
 Step number   1 out of a maximum of  192
 All quantities printed in internal units (Hartrees-Bohrs-Radians)
 RMS Force = .90321D-02 SwitMx=.10000D-02 MixMth= 1
 Mixed Optimization -- RFO/linear search
 Second derivative matrix not updated -- first step.
 ITU=  0
     Eigenvalues ---    0.01742   0.01748   0.01767   0.01778   0.01781
     Eigenvalues ---    0.01792   0.01803   0.01803   0.01803   0.01839
     Eigenvalues ---    0.01841   0.01845   0.01848   0.01856   0.01862
     Eigenvalues ---    0.01876   0.01877   0.02052   0.02066   0.02070
     Eigenvalues ---    0.02073   0.02096   0.02096   0.02101   0.02102
     Eigenvalues ---    0.02235   0.02237   0.02250   0.02251   0.16000
     Eigenvalues ---    0.16000   0.16000   0.16000   0.16000   0.16000
     Eigenvalues ---    0.16000   0.16000   0.16000   0.16000   0.16000
     Eigenvalues ---    0.16000   0.22059   0.22062   0.22196   0.22218
     Eigenvalues ---    0.23314   0.23409   0.23718   0.23753   0.24884
     Eigenvalues ---    0.24896   0.24956   0.24974   0.25000   0.32749
     Eigenvalues ---    0.33596   0.33598   0.33598   0.33598   0.33598
     Eigenvalues ---    0.33598   0.33599   0.33599   0.33682   0.33682
     Eigenvalues ---    0.33682   0.33682   0.36783   0.36957   0.38112
     Eigenvalues ---    0.38641   0.39372   0.39990   0.40034   0.40254
     Eigenvalues ---    0.41116   0.41175   0.41481   0.41489   0.41512
     Eigenvalues ---    0.42832   0.42850   0.43554   0.43556   0.43616
     Eigenvalues ---    0.43647   0.49674   0.49882   0.49954   0.49955
 RFO step:  Lambda=-4.24360357D-02 EMin= 1.74212762D-02
 Linear search not attempted -- first point.
 Maximum step size (   0.300) exceeded in Quadratic search.
    -- Step size scaled by   0.847
 Iteration  1 RMS(Cart)=  0.06331538 RMS(Int)=  0.00087933
 Iteration  2 RMS(Cart)=  0.00117205 RMS(Int)=  0.00008104
 Iteration  3 RMS(Cart)=  0.00000082 RMS(Int)=  0.00008104
 ITry= 1 IFail=0 DXMaxC= 3.36D-01 DCOld= 1.00D+10 DXMaxT= 3.00D-01 DXLimC= 3.00D+00 Rises=F
 Variable       Old X    -DE/DX   Delta X   Delta X   Delta X     New X
                                 (Linear)    (Quad)   (Total)
    R1        2.69335  -0.00975   0.00000  -0.02097  -0.02092   2.67244
    R2        2.58692   0.00732   0.00000   0.00983   0.00974   2.59666
    R3        2.08013  -0.00369   0.00000  -0.00826  -0.00826   2.07187
    R4        2.66200   0.00241   0.00000   0.00292   0.00306   2.66507
    R5        2.07870  -0.01042   0.00000  -0.02325  -0.02325   2.05545
    R6        2.70066   0.01692   0.00000   0.03329   0.03340   2.73406
[...]
 00000025,-0.00030275,-0.00068144,0.00000008,-0.00029096,-0.00520532,-0
 .00000384,0.00101176,-0.00536951,-0.00000394,-0.00004525,-0.00006860,-
 0.00000001,0.00005218,-0.00004093,0.,-0.00015889,-0.00002302,-0.000000
 05,0.00003566,-0.00000120,0.,-0.00001178,0.00000097,0.,-0.00001122,0.0
 0000122,-0.00000001,-0.00005390,-0.00001149,0.00000002,-0.00019371,0.0
 0011536,-0.00000004,0.00036901,0.00010620,0.00000019,-0.00171365,0.002
 07803,0.00000136,-0.03120960,0.00307292,-0.00000480,-0.00000069,-0.000
 02458,-0.00000005,0.00044094,-0.00001511,0.,0.03216945,0.00479192,0.00
 000529,-0.00029527,0.00180616,0.00000201,-0.00345590,-0.06631064,-0.00
 001028,0.00336924,0.06501916,-0.00000009,-0.00000025,0.00034432,0.0000
 0002,0.00000006,-0.00021140,0.,0.00000012,-0.00089206,-0.00000005,0.00
 000007,0.00008295,0.00000002,0.00000012,0.00013869,0.00000014,0.000000
 07,-0.00004700,-0.00000045,0.00000011,0.00057711,0.00000026,0.00000020
 ,-0.00041393,0.00000011,0.00000009,-0.00106386,-0.00000098,-0.00000399
 ,0.00646640,-0.00000064,-0.00000375,0.00712515,-0.00000005,-0.00000001
 ,-0.00004473,0.00000003,-0.00000007,-0.00001372,-0.00000016,-0.0000000
 1,0.00005191,0.00000003,0.,0.00001405,0.,0.,-0.00001329,0.,-0.00000001
 ,0.00002908,-0.00000004,0.00000002,-0.00010801,-0.00000012,-0.00000005
 ,0.00013527,0.00000020,0.00000009,-0.00030636,0.00000002,0.00000188,-0
 .00293219,-0.00001174,0.00000142,0.00256306,-0.00000002,-0.00000005,0.
 00012034,0.00000015,-0.00000013,0.00017857,0.00000857,-0.00000115,0.00
 426824,0.00000082,0.00000201,-0.00446968,-0.00006210,-0.00001036,-0.03
 647694,0.00006570,0.00001363,0.02485102,-0.01022954,0.03203276,0.00000
 723,-0.15080744,0.15215586,0.00002755,0.01255268,-0.01882791,-0.000004
 03,-0.00311012,-0.00256044,-0.00000213,0.00005105,-0.00115294,-0.00000
 014,-0.00541247,-0.00207798,-0.00000278,0.00079402,0.00145080,0.000000
 93,0.00094849,-0.00085219,-0.00000016,0.00025040,0.00005513,0.00000007
 ,0.00014910,0.00023581,0.00000015,-0.00020308,0.00006314,-0.00000002,-
 0.00019427,-0.00020232,-0.00000009,-0.00033737,-0.00002229,-0.00000008
 ,0.00000432,0.00062531,0.00000032,-0.00000637,-0.00003364,-0.00000003,
 0.00002177,0.00001420,0.,0.00195377,0.00013885,0.00000118,-0.00043767,
 0.00143779,0.00000037,-0.00342202,-0.00254955,-0.00000131,-0.00001748,
 0.00006620,0.,0.00003494,0.00039378,0.00000011,-0.00011532,-0.00049151
 ,-0.00000019,-0.00005859,0.00003090,0.,0.00002989,0.00005178,0.0000000
 2,0.00021896,-0.00009813,-0.00000001,-0.00000341,0.00000305,0.,-0.0000
 0417,0.00038018,0.00000012,0.00003302,0.00001161,0.00000002,0.16090366
 ,-0.00922610,0.00543407,-0.00000130,0.15393032,-0.33568832,-0.00006540
 ,0.01675676,-0.01500943,-0.00000256,-0.00359842,-0.00177683,-0.0000027
 6,-0.00090956,0.00061326,0.00000043,-0.00066929,0.00059442,-0.00000240
 ,0.00213287,0.00069482,0.00000122,0.00117526,-0.00039578,-0.00000002,-
 0.00050404,0.00006174,-0.00000003,0.00017250,0.00020111,0.00000019,0.0
 0021222,0.00019221,0.00000008,-0.00024420,-0.00035945,-0.00000014,0.00
 013429,-0.00021043,-0.00000007,-0.00001688,0.00000355,0.00000024,0.000
 13085,-0.00006366,-0.00000003,0.00000139,-0.00002192,-0.00000003,-0.00
 004643,0.00131947,0.00000197,-0.00025841,0.00026145,0.00000002,0.00166
 376,0.00003146,0.00000013,0.00007054,0.00035485,0.00000016,-0.00012280
 ,-0.00001487,-0.00000006,0.00015929,0.00034649,0.00000011,0.00000618,0
 .00000418,0.,0.00008267,0.00002688,0.00000002,-0.00026390,-0.00030006,
 -0.00000017,0.00001750,0.00001589,0.,0.00033466,-0.00005730,0.00000003
 ,-0.00010500,-0.00002676,0.,-0.16058581,0.34288625,-0.00000515,0.00000
 504,0.00503789,0.00002809,-0.00006527,-0.03648391,0.00000647,-0.000008
 41,0.00217511,-0.00000246,-0.00000264,0.00560547,-0.00000003,0.0000003
 9,-0.00127719,-0.00000231,-0.00000264,0.00830078,0.00000121,0.00000112
 ,-0.00232565,0.00000049,-0.00000033,0.00023965,-0.00000015,0.00000004,
 -0.00008140,0.00000012,0.00000017,-0.00033729,0.00000006,0.00000008,0.
 00005520,-0.00000010,-0.00000012,-0.00004429,-0.00000003,-0.00000012,0
 .00010045,0.00000011,0.00000038,-0.00082703,0.00000003,-0.00000005,0.0
 0008958,0.,-0.00000003,0.00007567,0.00000112,0.00000202,-0.00529763,-0
 .00000015,0.00000028,0.00004011,0.00000006,-0.00000037,0.00019643,0.,0
 .00000010,-0.00009194,-0.00000005,0.00000003,0.00012151,0.00000002,0.0
 0000002,0.00009986,0.,0.00000001,-0.00002526,0.00000003,0.00000001,0.0
 0000610,-0.00000010,-0.00000011,0.00008757,0.,0.,-0.00000760,0.0000001
 2,0.,0.00001552,-0.00000002,0.00000002,-0.00008877,-0.00002674,0.00007
 031,0.02392733,-0.00001202,-0.00007951,-0.00000004,-0.00344955,0.00242
 308,0.00000025,0.00092383,-0.00144254,0.00000004,0.00016398,-0.0002371
 5,0.,-0.00012675,0.00047433,0.00000011,0.00004469,-0.00039162,-0.00000
 013,0.01244130,0.01982465,0.00000814,0.00023388,-0.00004888,0.00000004
 ,0.00095844,0.00090135,0.00000040,-0.00333167,0.00250397,-0.00000057,-
 0.00021067,0.00020772,0.00000003,-0.00019258,-0.00007711,-0.00000007,0
 .00020515,0.00011648,0.00000005,0.00002168,-0.00037731,-0.00000011,0.0
 0002956,-0.00000957,0.00000002,-0.00000264,-0.00000373,0.,-0.00005717,
 -0.00003313,-0.00000001,0.00003476,-0.00005149,0.,-0.13994914,-0.14504
 658,-0.00006423,-0.00938218,-0.03257094,-0.00001300,-0.00550426,0.0018
 5654,-0.00000155,-0.00002300,0.00112984,0.00000057,0.00195627,-0.00011
 579,0.00000109,-0.00039399,-0.00146159,-0.00000053,-0.00033314,0.00001
 784,-0.00000007,0.00002228,-0.00001260,-0.00000001,0.00002638,-0.00062
 448,-0.00000007,-0.00000292,0.00003584,0.,-0.00369765,-0.00049696,-0.0
 0000068,0.14949480,-0.00008386,0.00034941,0.00000012,-0.00179015,0.000
 05901,-0.00000024,-0.00212456,0.00056502,0.00000064,-0.00017384,0.0001
 8624,0.00000015,-0.00017648,0.00035794,0.00000005,0.00012497,-0.000024
 63,-0.00000003,-0.01576000,-0.01489777,-0.00000807,0.00051030,0.000078
 27,0.00000013,-0.00112610,-0.00040572,-0.00000038,0.00354195,-0.001555
 21,-0.00000183,0.00024960,-0.00034304,-0.00000006,-0.00022620,0.000181
 71,0.,0.00028225,-0.00028626,-0.00000007,-0.00033180,-0.00008315,-0.00
 000008,0.00010705,-0.00002329,0.00000004,-0.00001817,0.00001512,0.,-0.
 00000841,0.00000275,0.,-0.00008239,0.00002200,0.,-0.14682141,-0.346546
 11,-0.00012556,0.00868802,0.00458626,0.00000118,0.00044783,0.00068614,
 -0.00000246,0.00088646,0.00068732,0.00000078,0.00006961,0.00131697,0.0
 0000220,0.00023461,0.00021776,0.00000010,-0.00013876,-0.00021467,-0.00
 000013,0.00000021,-0.00002243,-0.00000003,0.00001772,-0.00001852,0.000
 00027,-0.00012865,-0.00006711,-0.00000007,0.00032009,0.00117476,0.0000
 0013,0.15356212,0.35429470,-0.00000005,0.00000018,-0.00009194,-0.00000
 103,0.00000026,0.00019643,-0.00000011,0.00000074,-0.00232572,0.,0.0000
 0017,-0.00033730,-0.00000009,0.00000014,0.00009986,0.00000003,-0.00000
 012,0.00012151,-0.00000380,-0.00000224,0.00217505,0.00000017,0.0000000
 6,-0.00008140,-0.00000024,-0.00000007,0.00023966,-0.00000024,-0.000001
 95,0.00560558,0.00000005,-0.00000008,-0.00004430,-0.00000007,0.,0.0000
 5520,0.00000007,-0.00000013,0.00008757,-0.00000009,-0.00000005,0.00001
 552,0.00000005,0.00000002,-0.00008877,0.,0.,-0.00000760,0.,0.,-0.00002
 526,-0.00000002,0.,0.00000610,-0.00006479,-0.00012569,-0.03648394,0.00
 000063,-0.00000513,0.00503793,-0.00000197,-0.00000222,0.00830064,0.000
 00053,0.00000082,-0.00127719,0.00000115,0.00000215,-0.00529754,0.00000
 001,-0.00000016,0.00004011,-0.00000012,-0.00000007,0.00010045,-0.00000
 001,-0.00000004,0.00007568,0.00000012,0.00000013,-0.00082703,-0.000000
 05,-0.00000005,0.00008958,-0.00000042,0.00000007,0.00081686,0.00007029
 ,0.00013329,0.02392738,-0.00033316,0.00001785,-0.00000006,-0.00021067,
 0.00020770,0.00000004,0.00095844,0.00090131,0.00000040,-0.00333159,0.0
 0250389,-0.00000068,-0.00002293,0.00112992,0.00000054,0.00002633,-0.00
 062454,-0.00000006,0.00023389,-0.00004885,0.00000003,0.01244135,0.0198
 2330,0.00000761,0.00092378,-0.00144294,0.00000008,0.00016400,-0.000237
 20,0.,-0.00345193,0.00242435,0.00000013,-0.13995686,-0.14504863,-0.000
 05999,-0.00938199,-0.03256949,-0.00001211,-0.00550405,0.00185654,-0.00
 000164,-0.00039398,-0.00146154,-0.00000052,0.00195627,-0.00011578,0.00
 000113,0.00002228,-0.00001260,-0.00000001,-0.00000293,0.00003584,0.,-0
 .00019259,-0.00007715,-0.00000006,0.00020519,0.00011650,0.00000006,0.0
 0002170,-0.00037742,-0.00000012,-0.00012682,0.00047447,0.00000012,-0.0
 0000264,-0.00000373,0.,0.00002957,-0.00000957,0.00000002,-0.00001207,-
 0.00007946,0.,-0.00005718,-0.00003314,-0.00000002,0.00004470,-0.000391
 73,-0.00000014,0.00003477,-0.00005150,-0.00000002,0.00010631,0.0000448
 4,0.00000003,0.00000603,-0.00001764,0.,0.14950598,-0.00013878,-0.00021
 464,-0.00000012,0.00024964,-0.00034307,-0.00000005,-0.00112619,-0.0004
 0570,-0.00000039,0.00354207,-0.00155530,-0.00000157,0.00088640,0.00068
 734,0.00000074,0.00001773,-0.00001854,0.00000024,0.00051030,0.00007830
 ,0.00000013,-0.01576078,-0.01489853,-0.00000768,-0.00212475,0.00056477
 ,0.00000051,-0.00017386,0.00018627,0.00000013,-0.00179099,0.00005914,-
 0.00000041,-0.14682175,-0.34652589,-0.00011647,0.00868851,0.00458714,0
 .00000128,0.00044799,0.00068588,-0.00000220,0.00023462,0.00021779,0.00
 000009,0.00006954,0.00131692,0.00000199,0.00000021,-0.00002243,-0.0000
 0003,-0.00012865,-0.00006711,-0.00000007,-0.00022618,0.00018170,0.0000
 0001,0.00028226,-0.00028625,-0.00000008,-0.00033178,-0.00008317,-0.000
 00008,-0.00017644,0.00035796,0.00000006,-0.00001817,0.00001512,0.,0.00
 010704,-0.00002329,0.00000004,-0.00008391,0.00034957,0.00000014,-0.000
 00841,0.00000276,0.,0.00012491,-0.00002469,-0.00000002,-0.00008240,0.0
 0002202,0.,-0.00003441,-0.00018126,-0.00000005,-0.00001764,-0.00011222
 ,-0.00000002,0.15356361,0.35427407,-0.00000011,-0.00000012,0.00010045,
 0.00000005,-0.00000005,-0.00004428,-0.00000025,-0.00000005,0.00023968,
 -0.00000035,-0.00000178,0.00560541,0.00000043,0.00000077,-0.00127717,0
 .00000016,0.00000018,-0.00082700,0.00000025,0.00000003,-0.00008141,-0.
 00000291,-0.00000225,0.00217520,-0.00000020,0.00000062,-0.00232584,0.0
 0000004,0.00000009,-0.00033733,-0.00000125,0.00000041,0.00019660,-0.00
 006054,-0.00011579,-0.03648569,0.00000030,-0.00000543,0.00503770,-0.00
 000211,-0.00000200,0.00830054,0.,-0.00000019,0.00004011,0.00000118,0.0
 0000198,-0.00529746,0.,-0.00000003,0.00007567,-0.00000006,-0.00000004,
 0.00008957,-0.00000015,0.00000005,0.00005521,0.00000015,-0.00000007,0.
 00008757,-0.00000012,-0.00000013,0.00001552,-0.00000010,0.00000017,0.0
 0009988,0.,0.,-0.00000760,0.00000005,0.00000002,-0.00008877,0.00000002
 ,0.00000008,-0.00009192,0.,0.,-0.00002527,0.00000003,-0.00000010,0.000
 12153,-0.00000002,0.,0.00000609,0.00000002,-0.00000004,-0.00004940,0.,
 -0.00000002,-0.00005373,0.00006627,0.00012368,0.02392888,0.00021900,-0
 .00009816,0.,-0.00020309,0.00006319,-0.00000002,0.00025042,0.00005509,
 0.00000007,0.00014913,0.00023586,0.00000015,-0.00011538,-0.00049166,-0
 .00000018,-0.00000415,0.00038029,0.00000011,0.00094849,-0.00085215,-0.
 00000016,0.00079394,0.00145123,0.00000097,0.01255266,-0.01882661,-0.00
 000454,-0.00311003,-0.00256035,-0.00000223,-0.15081294,0.15215517,0.00
 003213,-0.00342435,-0.00255085,-0.00000144,-0.00001753,0.00006613,0.00
 000005,0.00003494,0.00039391,0.00000011,0.00002989,0.00005179,0.000000
 02,-0.00005861,0.00003091,0.,-0.00000341,0.00000305,0.,0.00003303,0.00
 001162,0.00000002,-0.00019426,-0.00020230,-0.00000008,-0.00033740,-0.0
 0002231,-0.00000007,0.00000427,0.00062537,0.00000033,0.00005111,-0.001
 15302,-0.00000017,0.00002177,0.00001420,0.,-0.00000638,-0.00003364,-0.
 00000003,-0.01022948,0.03203146,0.00000812,0.00195376,0.00013889,0.000
 00120,-0.00541232,-0.00207796,-0.00000286,-0.00043766,0.00143774,0.000
 00038,0.00000460,0.00002189,0.00000002,0.00010631,-0.00003440,0.,-0.00
 369920,0.00032026,-0.00000079,0.16091285,-0.00026391,-0.00030006,-0.00
 000016,0.00021220,0.00019220,0.00000007,-0.00050403,0.00006176,-0.0000
 0004,0.00017251,0.00020115,0.00000021,0.00015926,0.00034652,0.00000010
 ,0.00033464,-0.00005732,0.00000003,0.00117535,-0.00039574,-0.00000001,
 0.00213308,0.00069460,0.00000135,0.01675751,-0.01500995,-0.00000297,-0
 .00359853,-0.00177690,-0.00000303,0.15392817,-0.33566988,-0.00007435,0
 .00166451,0.00003156,0.00000029,0.00007058,0.00035502,0.00000014,-0.00
 012275,-0.00001492,-0.00000007,0.00008268,0.00002689,0.00000002,0.0000
 0619,0.00000419,0.00000001,0.00001750,0.00001589,0.00000001,-0.0001050
 0,-0.00002676,0.,-0.00024424,-0.00035947,-0.00000014,0.00013432,-0.000
 21041,-0.00000008,-0.00001690,0.00000353,0.00000027,-0.00090951,0.0006
 1330,0.00000047,0.00000139,-0.00002192,-0.00000003,0.00013086,-0.00006
 366,-0.00000003,-0.00922651,0.00543474,-0.00000136,-0.00004641,0.00131
 943,0.00000218,-0.00066942,0.00059417,-0.00000266,-0.00025842,0.000261
 48,0.00000004,0.00002188,-0.00011079,-0.00000001,0.00004485,-0.0001812
 6,-0.00000003,-0.00049723,0.00117532,0.,-0.16058465,0.34286730,-0.0000
 0002,-0.00000017,0.00008757,-0.00000001,0.00000003,0.00005521,-0.00000
 007,0.00000007,-0.00008141,0.00000015,0.00000025,-0.00033733,0.0000000
 1,-0.00000002,0.00009988,0.00000009,0.00000008,0.00001552,0.00000048,-
 0.00000034,0.00023968,0.00000112,0.00000124,-0.00232583,0.00000735,-0.
 00000838,0.00217523,-0.00000256,-0.00000282,0.00560540,0.00003270,-0.0
 0007502,-0.03648577,-0.00000015,-0.00000053,0.00019660,0.00000007,0.00
 000020,-0.00009192,-0.00000005,0.,0.00012153,0.00000003,0.00000002,0.0
 0000609,0.,0.00000001,-0.00002527,0.,0.,-0.00000760,-0.00000001,0.0000
 0002,-0.00008877,-0.00000010,-0.00000015,-0.00004429,-0.00000003,-0.00
 000008,0.00010045,0.00000014,0.00000034,-0.00082701,-0.00000012,0.0000
 0044,-0.00127716,0.,-0.00000003,0.00007567,0.00000002,-0.00000006,0.00
 008957,-0.00000548,0.00000533,0.00503769,0.00000114,0.00000219,-0.0052
 9749,-0.00000244,-0.00000287,0.00830058,-0.00000016,0.00000031,0.00004
 011,0.00000002,-0.00000002,-0.00005373,0.00000004,-0.00000005,-0.00004
 940,-0.00000105,0.00000019,0.00081726,-0.00003110,0.00007978,0.0239289
 3\\0.00012749,0.00007867,0.,-0.00020646,0.00005005,-0.00000009,0.00034
 224,0.00005633,0.00000021,-0.00008095,-0.00000051,-0.00000003,0.000246
 00,0.00000307,0.00000005,-0.00021333,-0.00012718,-0.00000006,-0.000343
 14,0.00003871,-0.00000018,0.00035168,-0.00003926,-0.00000007,-0.000350
 24,-0.00005372,0.00000004,0.00008190,0.00000449,0.00000003,0.00019857,
 -0.00005744,-0.00000006,-0.00019538,-0.00006504,0.00000002,0.00012785,
 -0.00007705,0.00000002,-0.00021942,0.00012279,0.00000001,0.00007753,-0
 .00005031,0.00000002,0.00003627,0.00004577,0.,0.00003663,-0.00004423,0
 .00000002,0.00007543,0.00005257,0.,0.00020057,0.00006037,0.00000013,-0
 .00012703,0.00007597,0.00000004,0.00021761,-0.00012301,-0.00000001,-0.
 00024722,-0.00000360,-0.00000005,-0.00003555,-0.00004578,-0.00000005,-
 0.00007728,0.00005034,0.00000003,-0.00012575,-0.00008107,-0.00000007,-
 0.00003780,0.00004435,0.00000004,0.00021510,0.00012931,0.00000007,-0.0
 0007566,-0.00005297,-0.00000005,0.00011549,-0.00008300,0.00000016,-0.0
 0011165,-0.00008764,-0.00000021,0.00011694,0.00009172,-0.00000010,-0.0
 0012041,0.00008729,0.00000016\\\@
 The archive entry for this job was punched.


 Happiness is a conscious choice, not an automatic response.
 -- Mildred Barthel
 Job cpu time:       0 days  0 hours 23 minutes 43.8 seconds.
 Elapsed time:       0 days  0 hours  1 minutes 30.7 seconds.
 File lengths (MBytes):  RWF=    203 Int=      0 D2E=      0 Chk=      5 Scr=      1
 Normal termination of Gaussian 16 at Mon Apr 22 04:01:45 2024.
 Initial command:
 /apps/gaussian/g16-c01-avx2/g16/l1.exe "/var/tmp/pbs.9303991.pbs/Gau-257987.inp" -scrdir="/var/tmp/pbs.9303991.pbs/"
 Entering Link 1 = /apps/gaussian/g16-c01-avx2/g16/l1.exe PID=    263229.
  
 Copyright (c) 1988-2019, Gaussian, Inc.  All Rights Reserved.
  
 This is part of the Gaussian(R) 16 program.  It is based on
 the Gaussian(R) 09 system (copyright 2009, Gaussian, Inc.),
 the Gaussian(R) 03 system (copyright 2003, Gaussian, Inc.),
 the Gaussian(R) 98 system (copyright 1998, Gaussian, Inc.),
 the Gaussian(R) 94 system (copyright 1995, Gaussian, Inc.),
 the Gaussian 92(TM) system (copyright 1992, Gaussian, Inc.),
 the Gaussian 90(TM) system (copyright 1990, Gaussian, Inc.),
 the Gaussian 88(TM) system (copyright 1988, Gaussian, Inc.),
 the Gaussian 86(TM) system (copyright 1986, Carnegie Mellon
 University), and the Gaussian 82(TM) system (copyright 1983,
 Carnegie Mellon University). Gaussian is a federally registered
 trademark of Gaussian, Inc.
  
 This software contains proprietary and confidential information,
 including trade secrets, belonging to Gaussian, Inc.
  
 This software is provided under written license and may be
 used, copied, transmitted, or stored only in accord with that
 written license.
  
 The following legend is applicable only to US Government
 contracts under FAR:
  
                    RESTRICTED RIGHTS LEGEND
  
 Use, reproduction and disclosure by the US Government is
 subject to restrictions as set forth in subparagraphs (a)
 and (c) of the Commercial Computer Software - Restricted
 Rights clause in FAR 52.227-19.
  
 Gaussian, Inc.
 340 Quinnipiac St., Bldg. 40, Wallingford CT 06492
  
  
 ---------------------------------------------------------------
 Warning -- This program may not be used in any manner that
 competes with the business of Gaussian, Inc. or will provide
 assistance to any competitor of Gaussian, Inc.  The licensee
 of this program is prohibited from giving any competitor of
 Gaussian, Inc. access to this program.  By using this program,
 the user acknowledges that Gaussian, Inc. is engaged in the
 business of creating and licensing software in the field of
 computational chemistry and represents and warrants to the
 licensee that it is not a competitor of Gaussian, Inc. and that
 it will not use this program in any manner prohibited above.
 ---------------------------------------------------------------
  

 Cite this work as:
 Gaussian 16, Revision C.01,
 M. J. Frisch, G. W. Trucks, H. B. Schlegel, G. E. Scuseria, 
 M. A. Robb, J. R. Cheeseman, G. Scalmani, V. Barone, 
 G. A. Petersson, H. Nakatsuji, X. Li, M. Caricato, A. V. Marenich, 
 J. Bloino, B. G. Janesko, R. Gomperts, B. Mennucci, H. P. Hratchian, 
 J. V. Ortiz, A. F. Izmaylov, J. L. Sonnenberg, D. Williams-Young, 
 F. Ding, F. Lipparini, F. Egidi, J. Goings, B. Peng, A. Petrone, 
 T. Henderson, D. Ranasinghe, V. G. Zakrzewski, J. Gao, N. Rega, 
 G. Zheng, W. Liang, M. Hada, M. Ehara, K. Toyota, R. Fukuda, 
 J. Hasegawa, M. Ishida, T. Nakajima, Y. Honda, O. Kitao, H. Nakai, 
 T. Vreven, K. Throssell, J. A. Montgomery, Jr., J. E. Peralta, 
 F. Ogliaro, M. J. Bearpark, J. J. Heyd, E. N. Brothers, K. N. Kudin, 
 V. N. Staroverov, T. A. Keith, R. Kobayashi, J. Normand, 
 K. Raghavachari, A. P. Rendell, J. C. Burant, S. S. Iyengar, 
 J. Tomasi, M. Cossi, J. M. Millam, M. Klene, C. Adamo, R. Cammi, 
 J. W. Ochterski, R. L. Martin, K. Morokuma, O. Farkas, 
 J. B. Foresman, and D. J. Fox, Gaussian, Inc., Wallingford CT, 2019.
 
 ******************************************
 Gaussian 16:  ES64L-G16RevC.01  3-Jul-2019
                22-Apr-2024 
 ******************************************
 %chk=p_pbe0_sto_1-1.chk
 %NProcShared=16
 Will use up to   16 processors via shared memory.
 %Mem=128GB
 ----------------------------------------------------------------------
 #p PB1PBE/STO-3G Freq(ReadFC, FC, ReadFCHT) NoSymm geom=check guess=re
 ad
 ----------------------------------------------------------------------
 QPErr --- A syntax error was detected in the input line.
 #p PB1PBE/STO-3G Freq(ReadFC, FC, ReadFC
    '
 Last state= "GCL"
 TCursr=      3880 LCursr=         3
 Error termination via Lnk1e in /apps/gaussian/g16-c01-avx2/g16/l1.exe at Mon Apr 22 04:01:45 2024.
 Job cpu time:       0 days  0 hours  0 minutes  0.2 seconds.
 Elapsed time:       0 days  0 hours  0 minutes  0.0 seconds.
 File lengths (MBytes):  RWF=      6 Int=      0 D2E=      0 Chk=      3 Scr=      1
