 Entering Gaussian System, Link 0=g16
 Input=ch2o_cis_S1_freq.gjf
 Output=ch2o_cis_S1_freq.log
 Initial command:
 /apps/gaussian/g16-c01-avx2/g16/l1.exe "/var/tmp/pbs.8973331.pbs/Gau-2007493.inp" -scrdir="/var/tmp/pbs.8973331.pbs/"
 Entering Link 1 = /apps/gaussian/g16-c01-avx2/g16/l1.exe PID=   2007495.
  
 Copyright (c) 1988-2019, Gaussian, Inc.  All Rights Reserved.
  
 This is part of the Gaussian(R) 16 program.  It is based on
 the Gaussian(R) 09 system (copyright 2009, Gaussian, Inc.),
 the Gaussian(R) 03 system (copyright 2003, Gaussian, Inc.),
 the Gaussian(R) 98 system (copyright 1998, Gaussian, Inc.),
 the Gaussian(R) 94 system (copyright 1995, Gaussian, Inc.),
 the Gaussian 92(TM) system (copyright 1992, Gaussian, Inc.),
 the Gaussian 90(TM) system (copyright 1990, Gaussian, Inc.),
 the Gaussian 88(TM) system (copyright 1988, Gaussian, Inc.),
 the Gaussian 86(TM) system (copyright 1986, Carnegie Mellon
 University), and the Gaussian 82(TM) system (copyright 1983,
 Carnegie Mellon University). Gaussian is a federally registered
 trademark of Gaussian, Inc.
  
 This software contains proprietary and confidential information,
 including trade secrets, belonging to Gaussian, Inc.
  
 This software is provided under written license and may be
 used, copied, transmitted, or stored only in accord with that
 written license.
  
 The following legend is applicable only to US Government
 contracts under FAR:
  
                    RESTRICTED RIGHTS LEGEND
  
 Use, reproduction and disclosure by the US Government is
 subject to restrictions as set forth in subparagraphs (a)
 and (c) of the Commercial Computer Software - Restricted
 Rights clause in FAR 52.227-19.
  
 Gaussian, Inc.
 340 Quinnipiac St., Bldg. 40, Wallingford CT 06492
  
  
 ---------------------------------------------------------------
 Warning -- This program may not be used in any manner that
 competes with the business of Gaussian, Inc. or will provide
 assistance to any competitor of Gaussian, Inc.  The licensee
 of this program is prohibited from giving any competitor of
 Gaussian, Inc. access to this program.  By using this program,
 the user acknowledges that Gaussian, Inc. is engaged in the
 business of creating and licensing software in the field of
 computational chemistry and represents and warrants to the
 licensee that it is not a competitor of Gaussian, Inc. and that
 it will not use this program in any manner prohibited above.
 ---------------------------------------------------------------
  

 Cite this work as:
 Gaussian 16, Revision C.01,
 M. J. Frisch, G. W. Trucks, H. B. Schlegel, G. E. Scuseria, 
 M. A. Robb, J. R. Cheeseman, G. Scalmani, V. Barone, 
 G. A. Petersson, H. Nakatsuji, X. Li, M. Caricato, A. V. Marenich, 
 J. Bloino, B. G. Janesko, R. Gomperts, B. Mennucci, H. P. Hratchian, 
 J. V. Ortiz, A. F. Izmaylov, J. L. Sonnenberg, D. Williams-Young, 
 F. Ding, F. Lipparini, F. Egidi, J. Goings, B. Peng, A. Petrone, 
 T. Henderson, D. Ranasinghe, V. G. Zakrzewski, J. Gao, N. Rega, 
 G. Zheng, W. Liang, M. Hada, M. Ehara, K. Toyota, R. Fukuda, 
 J. Hasegawa, M. Ishida, T. Nakajima, Y. Honda, O. Kitao, H. Nakai, 
 T. Vreven, K. Throssell, J. A. Montgomery, Jr., J. E. Peralta, 
 F. Ogliaro, M. J. Bearpark, J. J. Heyd, E. N. Brothers, K. N. Kudin, 
 V. N. Staroverov, T. A. Keith, R. Kobayashi, J. Normand, 
 K. Raghavachari, A. P. Rendell, J. C. Burant, S. S. Iyengar, 
 J. Tomasi, M. Cossi, J. M. Millam, M. Klene, C. Adamo, R. Cammi, 
 J. W. Ochterski, R. L. Martin, K. Morokuma, O. Farkas, 
 J. B. Foresman, and D. J. Fox, Gaussian, Inc., Wallingford CT, 2019.
 
 ******************************************
 Gaussian 16:  ES64L-G16RevC.01  3-Jul-2019
                22-Feb-2024 
 ******************************************
 %oldchk=/rds/general/user/rk820/home/dibs-g16/fc_ht/formaldehyde/ch2o_cis_S1_opt
 .chk
 %chk=/rds/general/user/rk820/home/dibs-g16/fc_ht/formaldehyde/ch2o_cis_S1_freq.c
 hk
 Copying data from "/rds/general/user/rk820/home/dibs-g16/fc_ht/formaldehyde/ch2o_cis_S1_opt.chk" to current chk file "/rds/general/user/rk820/home/dibs-g16/fc_ht/formaldehyde/ch2o_cis_S1_freq.chk"
 IOpt=  2 FromEx=T IUOpen= 4 IOptOp= 5 NList=   0 IFRang= 0 IUIn= 4 IUOut= 2.
 -------------------------------------
 #p freq cis(root=1)/sto-3g geom=check
 -------------------------------------
 1/10=4,29=2,30=1,38=1/1,3;
 2/12=2,40=1/2;
 3/6=3,11=9,14=-4,25=1,30=1,71=2,140=1/1,2,3,8;
 4//1;
 5/5=2,38=5,98=1/2;
 8/6=1,10=1,107=1/1;
 9/8=1,15=3,42=1/14;
 10/5=3004,20=4,28=1/2;
 11/6=1,8=1,12=-1,16=1,42=3/1,2,10;
 10/6=3,21=1,28=1/2,14;
 6/7=2,8=2,9=2,10=2/1;
 7/8=1,10=1,12=6,13=8,14=1,25=1,44=2/1,2,3,16;
 1/10=4,30=1/3;
 99//99;
 Leave Link    1 at Thu Feb 22 17:41:59 2024, MaxMem=   104857600 cpu:               0.0 elap:               5.6
 (Enter /apps/gaussian/g16-c01-avx2/g16/l101.exe)
 ------------------------------------
 ch2o S1 freq from optimised geometry
 ------------------------------------
 Structure from the checkpoint file:  "/rds/general/user/rk820/home/dibs-g16/fc_ht/formaldehyde/ch2o_cis_S1_freq.chk"
 Charge =  0 Multiplicity = 1
 Redundant internal coordinates found in file.  (old form).
 C,0,0.,0.,-0.5919551634
 H,0,0.,-0.9427876303,-1.1153570026
 H,0,0.,0.9427876303,-1.1153570026
 O,0,0.,0.,0.7126841685
 Recover connectivity data from disk.
 ITRead=  0  0  0  0
 MicOpt= -1 -1 -1 -1
 NAtoms=      4 NQM=        4 NQMF=       0 NMMI=      0 NMMIF=      0
                NMic=       0 NMicF=      0.
                    Isotopes and Nuclear Properties:
 (Nuclear quadrupole moments (NQMom) in fm**2, nuclear magnetic moments (NMagM)
  in nuclear magnetons)

  Atom         1           2           3           4
 IAtWgt=          12           1           1          16
 AtmWgt=  12.0000000   1.0078250   1.0078250  15.9949146
 NucSpn=           0           1           1           0
 AtZEff=   3.6000000   1.0000000   1.0000000   5.6000000
 NQMom=    0.0000000   0.0000000   0.0000000   0.0000000
 NMagM=    0.0000000   2.7928460   2.7928460   0.0000000
 AtZNuc=   6.0000000   1.0000000   1.0000000   8.0000000
 Leave Link  101 at Thu Feb 22 17:42:03 2024, MaxMem=   104857600 cpu:               0.1 elap:               0.1
 (Enter /apps/gaussian/g16-c01-avx2/g16/l103.exe)

 GradGradGradGradGradGradGradGradGradGradGradGradGradGradGradGradGradGrad
 Berny optimization.
 Initialization pass.
                           ----------------------------
                           !    Initial Parameters    !
                           ! (Angstroms and Degrees)  !
 --------------------------                            --------------------------
 ! Name  Definition              Value          Derivative Info.                !
 --------------------------------------------------------------------------------
 ! R1    R(1,2)                  1.0783         calculate D2E/DX2 analytically  !
 ! R2    R(1,3)                  1.0783         calculate D2E/DX2 analytically  !
 ! R3    R(1,4)                  1.3046         calculate D2E/DX2 analytically  !
 ! A1    A(2,1,3)              121.9251         calculate D2E/DX2 analytically  !
 ! A2    A(2,1,4)              119.0375         calculate D2E/DX2 analytically  !
 ! A3    A(3,1,4)              119.0375         calculate D2E/DX2 analytically  !
 ! D1    D(2,1,4,3)            180.0            calculate D2E/DX2 analytically  !
 --------------------------------------------------------------------------------
 Trust Radius=3.00D-01 FncErr=1.00D-07 GrdErr=1.00D-07 EigMax=2.50D+02 EigMin=1.00D-04
 Number of steps in this run=      2 maximum allowed number of steps=      2.
 GradGradGradGradGradGradGradGradGradGradGradGradGradGradGradGradGradGrad

 Leave Link  103 at Thu Feb 22 17:42:06 2024, MaxMem=   104857600 cpu:               0.0 elap:               0.1
 (Enter /apps/gaussian/g16-c01-avx2/g16/l202.exe)
                          Input orientation:                          
 ---------------------------------------------------------------------
 Center     Atomic      Atomic             Coordinates (Angstroms)
 Number     Number       Type             X           Y           Z
 ---------------------------------------------------------------------
      1          6           0       -0.000000   -0.000000   -0.591955
      2          1           0       -0.000000   -0.942788   -1.115357
      3          1           0        0.000000    0.942788   -1.115357
      4          8           0        0.000000    0.000000    0.712684
 ---------------------------------------------------------------------
                    Distance matrix (angstroms):
                    1          2          3          4
     1  C    0.000000
     2  H    1.078331   0.000000
     3  H    1.078331   1.885575   0.000000
     4  O    1.304639   2.056838   2.056838   0.000000
 Stoichiometry    CH2O
 Framework group  C2V[C2(CO),SGV(H2)]
 Deg. of freedom     3
 Full point group                 C2V     NOp   4
 RotChk:  IX=0 Diff= 3.33D-16
 Largest Abelian subgroup         C2V     NOp   4
 Largest concise Abelian subgroup C2      NOp   2
                         Standard orientation:                         
 ---------------------------------------------------------------------
 Center     Atomic      Atomic             Coordinates (Angstroms)
 Number     Number       Type             X           Y           Z
 ---------------------------------------------------------------------
      1          6           0        0.000000    0.000000   -0.586894
      2          1           0       -0.000000    0.942788   -1.110296
      3          1           0       -0.000000   -0.942788   -1.110296
      4          8           0       -0.000000   -0.000000    0.717745
 ---------------------------------------------------------------------
 Rotational constants (GHZ):         282.0813083          34.3869156          30.6504900
 Leave Link  202 at Thu Feb 22 17:42:07 2024, MaxMem=   104857600 cpu:               0.0 elap:               0.0
 (Enter /apps/gaussian/g16-c01-avx2/g16/l301.exe)
 Standard basis: STO-3G (5D, 7F)
 Ernie: Thresh=  0.10000D-02 Tol=  0.10000D-05 Strict=F.
 There are     7 symmetry adapted cartesian basis functions of A1  symmetry.
 There are     0 symmetry adapted cartesian basis functions of A2  symmetry.
 There are     2 symmetry adapted cartesian basis functions of B1  symmetry.
 There are     3 symmetry adapted cartesian basis functions of B2  symmetry.
 There are     7 symmetry adapted basis functions of A1  symmetry.
 There are     0 symmetry adapted basis functions of A2  symmetry.
 There are     2 symmetry adapted basis functions of B1  symmetry.
 There are     3 symmetry adapted basis functions of B2  symmetry.
    12 basis functions,    36 primitive gaussians,    12 cartesian basis functions
     8 alpha electrons        8 beta electrons
       nuclear repulsion energy        29.7552943058 Hartrees.
 IExCor=    0 DFT=F Ex=HF Corr=None ExCW=0 ScaHFX=  1.000000
 ScaDFX=  1.000000  1.000000  1.000000  1.000000 ScalE2=  1.000000  1.000000
 IRadAn=      5 IRanWt=     -1 IRanGd=            0 ICorTp=0 IEmpDi=  4
 NAtoms=    4 NActive=    4 NUniq=    3 SFac= 1.78D+00 NAtFMM=   60 NAOKFM=F Big=F
 Integral buffers will be    131072 words long.
 Raffenetti 1 integral format.
 Two-electron integral symmetry is turned on.
 Leave Link  301 at Thu Feb 22 17:42:20 2024, MaxMem=   104857600 cpu:               0.0 elap:               5.6
 (Enter /apps/gaussian/g16-c01-avx2/g16/l302.exe)
 NPDir=0 NMtPBC=     1 NCelOv=     1 NCel=       1 NClECP=     1 NCelD=      1
         NCelK=      1 NCelE2=     1 NClLst=     1 CellRange=     0.0.
 One-electron integrals computed using PRISM.
 One-electron integral symmetry used in STVInt
 NBasis=    12 RedAO= T EigKep=  2.58D-01  NBF=     7     0     2     3
 NBsUse=    12 1.00D-06 EigRej= -1.00D+00 NBFU=     7     0     2     3
 Leave Link  302 at Thu Feb 22 17:42:22 2024, MaxMem=   104857600 cpu:               0.1 elap:               0.1
 (Enter /apps/gaussian/g16-c01-avx2/g16/l303.exe)
 DipDrv:  MaxL=1.
 Leave Link  303 at Thu Feb 22 17:42:23 2024, MaxMem=   104857600 cpu:               0.0 elap:               0.0
 (Enter /apps/gaussian/g16-c01-avx2/g16/l308.exe)
 Leave Link  308 at Thu Feb 22 17:42:24 2024, MaxMem=   104857600 cpu:               0.0 elap:               0.1
 (Enter /apps/gaussian/g16-c01-avx2/g16/l401.exe)
 ExpMin= 1.69D-01 ExpMax= 1.31D+02 ExpMxC= 1.31D+02 IAcc=3 IRadAn=         5 AccDes= 0.00D+00
 Harris functional with IExCor=  205 and IRadAn=       5 diagonalized for initial guess.
 HarFok:  IExCor=  205 AccDes= 0.00D+00 IRadAn=         5 IDoV= 1 UseB2=F ITyADJ=14
 ICtDFT=  3500011 ScaDFX=  1.000000  1.000000  1.000000  1.000000
 FoFCou: FMM=F IPFlag=           0 FMFlag=      100000 FMFlg1=           0
         NFxFlg=           0 DoJE=T BraDBF=F KetDBF=T FulRan=T
         wScrn=  0.000000 ICntrl=       500 IOpCl=  0 I1Cent=   200000004 NGrid=           0
         NMat0=    1 NMatS0=      1 NMatT0=    0 NMatD0=    1 NMtDS0=    0 NMtDT0=    0
 Petite list used in FoFCou.
 Harris En= -112.398592657976    
 JPrj=0 DoOrth=F DoCkMO=F.
 Initial guess orbital symmetries:
       Occupied  (A1) (A1) (A1) (A1) (B2) (A1) (B1) (B2)
       Virtual   (B1) (A1) (A1) (B2)
 The electronic state of the initial guess is 1-A1.
 Leave Link  401 at Thu Feb 22 17:42:25 2024, MaxMem=   104857600 cpu:               0.1 elap:               0.6
 (Enter /apps/gaussian/g16-c01-avx2/g16/l502.exe)
 Keep R1 ints in memory in symmetry-blocked form, NReq=807829.
 FoFCou: FMM=F IPFlag=           0 FMFlag=           0 FMFlg1=           0
         NFxFlg=           0 DoJE=F BraDBF=F KetDBF=F FulRan=T
         wScrn=  0.000000 ICntrl=       600 IOpCl=  0 I1Cent=           0 NGrid=           0
         NMat0=    1 NMatS0=     78 NMatT0=    0 NMatD0=    1 NMtDS0=    0 NMtDT0=    0
 Petite list used in FoFCou.
 Closed shell SCF:
 Using DIIS extrapolation, IDIIS=  1040.
 NGot=   104857600 LenX=   104854386 LenY=   104853504
 Requested convergence on RMS density matrix=1.00D-08 within 128 cycles.
 Requested convergence on MAX density matrix=1.00D-06.
 Requested convergence on             energy=1.00D-06.
 No special actions if energy rises.

 Cycle   1  Pass 1  IDiag  1:
 E= -112.321658571567    
 DIIS: error= 4.03D-02 at cycle   1 NSaved=   1.
 NSaved= 1 IEnMin= 1 EnMin= -112.321658571567     IErMin= 1 ErrMin= 4.03D-02
 ErrMax= 4.03D-02  0.00D+00 EMaxC= 1.00D-01 BMatC= 1.92D-02 BMatP= 1.92D-02
 IDIUse=3 WtCom= 5.97D-01 WtEn= 4.03D-01
 Coeff-Com:  0.100D+01
 Coeff-En:   0.100D+01
 Coeff:      0.100D+01
 Gap=     0.572 Goal=   None    Shift=    0.000
 GapD=    0.572 DampG=2.000 DampE=0.500 DampFc=1.0000 IDamp=-1.
 RMSDP=1.43D-02 MaxDP=7.71D-02              OVMax= 0.00D+00

 Cycle   2  Pass 1  IDiag  1:
 E= -112.337170106042     Delta-E=       -0.015511534475 Rises=F Damp=F
 DIIS: error= 1.13D-02 at cycle   2 NSaved=   2.
 NSaved= 2 IEnMin= 2 EnMin= -112.337170106042     IErMin= 2 ErrMin= 1.13D-02
 ErrMax= 1.13D-02  0.00D+00 EMaxC= 1.00D-01 BMatC= 2.20D-03 BMatP= 1.92D-02
 IDIUse=3 WtCom= 8.87D-01 WtEn= 1.13D-01
 Coeff-Com:  0.123D+00 0.877D+00
 Coeff-En:   0.000D+00 0.100D+01
 Coeff:      0.109D+00 0.891D+00
 Gap=     0.624 Goal=   None    Shift=    0.000
 RMSDP=5.81D-03 MaxDP=2.53D-02 DE=-1.55D-02 OVMax= 0.00D+00

 Cycle   3  Pass 1  IDiag  1:
 E= -112.339028767182     Delta-E=       -0.001858661140 Rises=F Damp=F
 DIIS: error= 7.61D-03 at cycle   3 NSaved=   3.
 NSaved= 3 IEnMin= 3 EnMin= -112.339028767182     IErMin= 3 ErrMin= 7.61D-03
 ErrMax= 7.61D-03  0.00D+00 EMaxC= 1.00D-01 BMatC= 4.11D-04 BMatP= 2.20D-03
 IDIUse=3 WtCom= 9.24D-01 WtEn= 7.61D-02
 Coeff-Com: -0.404D-01 0.275D+00 0.765D+00
 Coeff-En:   0.000D+00 0.000D+00 0.100D+01
 Coeff:     -0.373D-01 0.254D+00 0.783D+00
 Gap=     0.609 Goal=   None    Shift=    0.000
 RMSDP=2.31D-03 MaxDP=1.72D-02 DE=-1.86D-03 OVMax= 0.00D+00

 Cycle   4  Pass 1  IDiag  1:
 E= -112.339643344753     Delta-E=       -0.000614577571 Rises=F Damp=F
 DIIS: error= 1.43D-03 at cycle   4 NSaved=   4.
 NSaved= 4 IEnMin= 4 EnMin= -112.339643344753     IErMin= 4 ErrMin= 1.43D-03
 ErrMax= 1.43D-03  0.00D+00 EMaxC= 1.00D-01 BMatC= 2.73D-05 BMatP= 4.11D-04
 IDIUse=3 WtCom= 9.86D-01 WtEn= 1.43D-02
 Coeff-Com:  0.175D-01-0.207D+00-0.216D+00 0.141D+01
 Coeff-En:   0.000D+00 0.000D+00 0.000D+00 0.100D+01
 Coeff:      0.172D-01-0.204D+00-0.213D+00 0.140D+01
 Gap=     0.613 Goal=   None    Shift=    0.000
 RMSDP=8.62D-04 MaxDP=3.37D-03 DE=-6.15D-04 OVMax= 0.00D+00

 Cycle   5  Pass 1  IDiag  1:
 E= -112.339696811211     Delta-E=       -0.000053466458 Rises=F Damp=F
 DIIS: error= 3.58D-04 at cycle   5 NSaved=   5.
 NSaved= 5 IEnMin= 5 EnMin= -112.339696811211     IErMin= 5 ErrMin= 3.58D-04
 ErrMax= 3.58D-04  0.00D+00 EMaxC= 1.00D-01 BMatC= 2.02D-06 BMatP= 2.73D-05
 IDIUse=3 WtCom= 9.96D-01 WtEn= 3.58D-03
 Coeff-Com: -0.152D-01 0.191D+00 0.234D+00-0.157D+01 0.216D+01
 Coeff-En:   0.000D+00 0.000D+00 0.000D+00 0.000D+00 0.100D+01
 Coeff:     -0.151D-01 0.190D+00 0.233D+00-0.156D+01 0.215D+01
 Gap=     0.614 Goal=   None    Shift=    0.000
 RMSDP=4.39D-04 MaxDP=2.38D-03 DE=-5.35D-05 OVMax= 0.00D+00

 Cycle   6  Pass 1  IDiag  1:
 E= -112.339703813567     Delta-E=       -0.000007002356 Rises=F Damp=F
 DIIS: error= 2.48D-05 at cycle   6 NSaved=   6.
 NSaved= 6 IEnMin= 6 EnMin= -112.339703813567     IErMin= 6 ErrMin= 2.48D-05
 ErrMax= 2.48D-05  0.00D+00 EMaxC= 1.00D-01 BMatC= 1.12D-08 BMatP= 2.02D-06
 IDIUse=1 WtCom= 1.00D+00 WtEn= 0.00D+00
 Coeff-Com:  0.123D-02-0.168D-01-0.209D-01 0.160D+00-0.315D+00 0.119D+01
 Coeff:      0.123D-02-0.168D-01-0.209D-01 0.160D+00-0.315D+00 0.119D+01
 Gap=     0.614 Goal=   None    Shift=    0.000
 RMSDP=3.64D-05 MaxDP=1.83D-04 DE=-7.00D-06 OVMax= 0.00D+00

 Cycle   7  Pass 1  IDiag  1:
 E= -112.339703857251     Delta-E=       -0.000000043684 Rises=F Damp=F
 DIIS: error= 2.23D-06 at cycle   7 NSaved=   7.
 NSaved= 7 IEnMin= 7 EnMin= -112.339703857251     IErMin= 7 ErrMin= 2.23D-06
 ErrMax= 2.23D-06  0.00D+00 EMaxC= 1.00D-01 BMatC= 6.50D-11 BMatP= 1.12D-08
 IDIUse=1 WtCom= 1.00D+00 WtEn= 0.00D+00
 Coeff-Com: -0.118D-03 0.171D-02 0.226D-02-0.189D-01 0.422D-01-0.203D+00
 Coeff-Com:  0.118D+01
 Coeff:     -0.118D-03 0.171D-02 0.226D-02-0.189D-01 0.422D-01-0.203D+00
 Coeff:      0.118D+01
 Gap=     0.614 Goal=   None    Shift=    0.000
 RMSDP=1.12D-06 MaxDP=5.86D-06 DE=-4.37D-08 OVMax= 0.00D+00

 Cycle   8  Pass 1  IDiag  1:
 E= -112.339703857355     Delta-E=       -0.000000000104 Rises=F Damp=F
 DIIS: error= 2.99D-07 at cycle   8 NSaved=   8.
 NSaved= 8 IEnMin= 8 EnMin= -112.339703857355     IErMin= 8 ErrMin= 2.99D-07
 ErrMax= 2.99D-07  0.00D+00 EMaxC= 1.00D-01 BMatC= 8.67D-13 BMatP= 6.50D-11
 IDIUse=1 WtCom= 1.00D+00 WtEn= 0.00D+00
 Coeff-Com:  0.453D-06-0.219D-04-0.551D-04 0.650D-03-0.182D-02 0.118D-01
 Coeff-Com: -0.161D+00 0.115D+01
 Coeff:      0.453D-06-0.219D-04-0.551D-04 0.650D-03-0.182D-02 0.118D-01
 Coeff:     -0.161D+00 0.115D+01
 Gap=     0.614 Goal=   None    Shift=    0.000
 RMSDP=1.71D-07 MaxDP=1.14D-06 DE=-1.04D-10 OVMax= 0.00D+00

 Cycle   9  Pass 1  IDiag  1:
 E= -112.339703857357     Delta-E=       -0.000000000001 Rises=F Damp=F
 DIIS: error= 1.45D-08 at cycle   9 NSaved=   9.
 NSaved= 9 IEnMin= 9 EnMin= -112.339703857357     IErMin= 9 ErrMin= 1.45D-08
 ErrMax= 1.45D-08  0.00D+00 EMaxC= 1.00D-01 BMatC= 2.87D-15 BMatP= 8.67D-13
 IDIUse=1 WtCom= 1.00D+00 WtEn= 0.00D+00
 Coeff-Com: -0.394D-07 0.136D-05 0.553D-05-0.601D-04 0.146D-03-0.875D-03
 Coeff-Com:  0.178D-01-0.180D+00 0.116D+01
 Coeff:     -0.394D-07 0.136D-05 0.553D-05-0.601D-04 0.146D-03-0.875D-03
 Coeff:      0.178D-01-0.180D+00 0.116D+01
 Gap=     0.614 Goal=   None    Shift=    0.000
 RMSDP=1.06D-08 MaxDP=4.77D-08 DE=-1.48D-12 OVMax= 0.00D+00

 Cycle  10  Pass 1  IDiag  1:
 E= -112.339703857357     Delta-E=        0.000000000000 Rises=F Damp=F
 DIIS: error= 5.45D-10 at cycle  10 NSaved=  10.
 NSaved=10 IEnMin= 9 EnMin= -112.339703857357     IErMin=10 ErrMin= 5.45D-10
 ErrMax= 5.45D-10  0.00D+00 EMaxC= 1.00D-01 BMatC= 4.77D-18 BMatP= 2.87D-15
 IDIUse=1 WtCom= 1.00D+00 WtEn= 0.00D+00
 Coeff-Com: -0.142D-07-0.381D-07-0.947D-06 0.122D-04-0.319D-04 0.207D-03
 Coeff-Com: -0.437D-02 0.445D-01-0.292D+00 0.125D+01
 Coeff:     -0.142D-07-0.381D-07-0.947D-06 0.122D-04-0.319D-04 0.207D-03
 Coeff:     -0.437D-02 0.445D-01-0.292D+00 0.125D+01
 Gap=     0.614 Goal=   None    Shift=    0.000
 RMSDP=3.11D-10 MaxDP=1.32D-09 DE= 1.14D-13 OVMax= 0.00D+00

 SCF Done:  E(RHF) =  -112.339703857     A.U. after   10 cycles
            NFock= 10  Conv=0.31D-09     -V/T= 2.0093
 KE= 1.113085214395D+02 PE=-3.247095501449D+02 EE= 7.130603054225D+01
 Leave Link  502 at Thu Feb 22 17:42:28 2024, MaxMem=   104857600 cpu:               0.0 elap:               0.0
 (Enter /apps/gaussian/g16-c01-avx2/g16/l801.exe)
 ExpMin= 1.69D-01 ExpMax= 1.31D+02 ExpMxC= 1.31D+02 IAcc=3 IRadAn=         5 AccDes= 0.00D+00
 HarFok:  IExCor=  205 AccDes= 0.00D+00 IRadAn=         5 IDoV=-2 UseB2=F ITyADJ=14
 ICtDFT= 12500011 ScaDFX=  1.000000  1.000000  1.000000  1.000000
 Largest valence mixing into a core orbital is  1.40D-04
 Largest core mixing into a valence orbital is  1.08D-04
 Range of M.O.s used for correlation:     3    12
 NBasis=    12 NAE=     8 NBE=     8 NFC=     2 NFV=     0
 NROrb=     10 NOA=     6 NOB=     6 NVA=     4 NVB=     4
 Leave Link  801 at Thu Feb 22 17:42:31 2024, MaxMem=   104857600 cpu:               0.1 elap:               0.2
 (Enter /apps/gaussian/g16-c01-avx2/g16/l914.exe)
 RHF ground state
 Keep R1, R2, and R3 ints in memory in symmetry-blocked form, NReq=808268.
 FoFCou: FMM=F IPFlag=           0 FMFlag=           0 FMFlg1=           0
         NFxFlg=           0 DoJE=F BraDBF=F KetDBF=F FulRan=T
         wScrn=  0.000000 ICntrl=       600 IOpCl=  0 I1Cent=           0 NGrid=           0
         NMat0=    1 NMatS0=     78 NMatT0=    0 NMatD0=    1 NMtDS0=    0 NMtDT0=    0
 Petite list used in FoFCou.
 MDV=   104857600 DFT=F DoStab=F Mixed=F DoRPA=F DoScal=F NonHer=F
 Making orbital integer symmetry assigments:
 Orbital symmetries:
       Occupied  (A1) (A1) (A1) (A1) (B2) (A1) (B1) (B2)
       Virtual   (B1) (A1) (B2) (A1)
    12 initial guesses have been made.
 Convergence on wavefunction:    0.000001000000000
 Davidson Disk Diagonalization:  ConvIn= 1.00D-06 SkipCon=T Conv= 1.00D-06.
 Max sub-space:    96 roots to seek:    12 dimension of matrix:           48
 Iteration     1 Dimension    12 NMult     0 NNew     12
 CISAX will form    12 AO SS matrices at one time.
 NMat=    12 NSing=    12 JSym2X= 2.
 New state      2 was old state      3
 New state      3 was old state      2
 Excitation Energies [eV] at current iteration:
 Root      1 :     3.417137313041592
 Root      2 :     8.093830247958596
 Root      3 :    11.145921871642535
 Root      4 :    12.855169297385480
 Root      5 :    16.610817518435532
 Root      6 :    17.492336249921877
 Root      7 :    19.082934297791539
 Root      8 :    20.440386467083169
 Root      9 :    20.456045717742263
 Root     10 :    20.956859952555931
 Root     11 :    22.207957547375624
 Root     12 :    27.644619911324902
 Iteration     2 Dimension    18 NMult    12 NNew      6
 CISAX will form     6 AO SS matrices at one time.
 NMat=     6 NSing=     6 JSym2X= 2.
 Root      1 has converged.
 Root      2 not converged, maximum delta is    0.059147863349315
 Root      3 not converged, maximum delta is    0.100467060962810
 Excitation Energies [eV] at current iteration:
 Root      1 :     3.417137313041592   Change is    0.000000000000000
 Root      2 :     7.942346797957958   Change is   -0.151483450000639
 Root      3 :    10.421807668333205   Change is   -0.724114203309331
 Root      4 :    12.855169297385491   Change is    0.000000000000012
 Root      5 :    16.206907921734903   Change is   -0.403909596700630
 Root      6 :    17.489781389112540   Change is   -0.002554860809336
 Root      7 :    19.079991885499098   Change is   -0.002942412292438
 Root      8 :    20.284845289376186   Change is   -0.155541177706980
 Root      9 :    20.454521191476260   Change is   -0.001524526266001
 Root     10 :    20.956859952555966   Change is    0.000000000000036
 Root     11 :    21.811345865276824   Change is   -0.396611682098801
 Root     12 :    23.635643916713061   Change is   -4.008975994611840
 Iteration     3 Dimension    19 NMult    18 NNew      1
 CISAX will form     1 AO SS matrices at one time.
 NMat=     1 NSing=     1 JSym2X= 2.
 Root      1 has converged.
 Root      2 has converged.
 Root      3 not converged, maximum delta is    0.002285211732872
 Excitation Energies [eV] at current iteration:
 Root      1 :     3.417137313041592   Change is    0.000000000000000
 Root      2 :     7.942346797957939   Change is   -0.000000000000018
 Root      3 :    10.420766156092570   Change is   -0.001041512240634
 Iteration     4 Dimension    20 NMult    19 NNew      1
 CISAX will form     1 AO SS matrices at one time.
 NMat=     1 NSing=     1 JSym2X= 2.
 Root      1 has converged.
 Root      2 has converged.
 Root      3 not converged, maximum delta is    0.000266073648981
 Excitation Energies [eV] at current iteration:
 Root      1 :     3.417137313041585   Change is   -0.000000000000006
 Root      2 :     7.942346797957988   Change is    0.000000000000048
 Root      3 :    10.420757393567643   Change is   -0.000008762524929
 Iteration     5 Dimension    21 NMult    20 NNew      1
 CISAX will form     1 AO SS matrices at one time.
 NMat=     1 NSing=     1 JSym2X= 2.
 Root      1 has converged.
 Root      2 has converged.
 Root      3 not converged, maximum delta is    0.000009623037017
 Excitation Energies [eV] at current iteration:
 Root      1 :     3.417137313041585   Change is    0.000000000000000
 Root      2 :     7.942346797957909   Change is   -0.000000000000079
 Root      3 :    10.420757385349617   Change is   -0.000000008218025
 Convergence achieved on expansion vectors.
 ***********************************************************************
 Excited states from <AA,BB:AA,BB> singles matrix:
 ***********************************************************************
 
 1PDM for each excited state written to RWF  633
 Ground to excited state transition densities written to RWF  633
 Ground to excited state transition electric dipole moments (Au):
       state          X           Y           Z        Dip. S.      Osc.
         1        -0.0000     -0.0000     -0.0000      0.0000      0.0000
         2         0.2108     -0.0000     -0.0000      0.0445      0.0087
         3         0.0000     -0.0000      1.0593      1.1222      0.2865
 Ground to excited state transition velocity dipole moments (Au):
       state          X           Y           Z        Dip. S.      Osc.
         1         0.0000     -0.0000     -0.0000      0.0000      0.0000
         2        -0.1440     -0.0000     -0.0000      0.0207      0.0474
         3        -0.0000      0.0000      0.1097      0.0120      0.0209
 Ground to excited state transition magnetic dipole moments (Au):
       state          X           Y           Z
         1        -0.0000      0.0000      1.0987
         2        -0.0000     -1.6542     -0.0000
         3        -0.0000      0.0000     -0.0000
 Ground to excited state transition velocity quadrupole moments (Au):
       state          XX          YY          ZZ          XY          XZ          YZ
         1        -0.0000      0.0000      0.0000      0.0226     -0.0000      0.0000
         2        -0.0000      0.0000      0.0000      0.0000     -0.0451      0.0000
         3         0.0756      0.0991      0.2046      0.0000      0.0000     -0.0000
 <0|del|b> * <b|rxdel|0> + <0|del|b> * <b|delr+rdel|0>
 Rotatory Strengths (R) in cgs (10**-40 erg-esu-cm/Gauss)
       state          XX          YY          ZZ    R(velocity)    E-M Angle
         1        -0.0000     -0.0000     -0.0000     -0.0000       90.00
         2         0.0000     -0.0000      0.0000      0.0000       90.00
         3         0.0000     -0.0000      0.0000     -0.0000       90.00
 1/2[<0|r|b>*<b|rxdel|0> + (<0|rxdel|b>*<b|r|0>)*]
 Rotatory Strengths (R) in cgs (10**-40 erg-esu-cm/Gauss)
       state          XX          YY          ZZ     R(length)
         1        -0.0000      0.0000      0.0000      0.0000
         2         0.0000     -0.0000     -0.0000     -0.0000
         3         0.0000      0.0000      0.0000      0.0000
  1/2[<0|del|b>*<b|r|0> + (<0|r|b>*<b|del|0>)*] (Au)
       state          X           Y           Z        Dip. S.   Osc.(frdel)
         1        -0.0000      0.0000      0.0000     -0.0000     -0.0000
         2        -0.0304      0.0000      0.0000      0.0304      0.0202
         3        -0.0000     -0.0000      0.1162     -0.1162     -0.0775

 Excitation energies and oscillator strengths:
 
 Excited State   1:      Singlet-A2     3.4171 eV  362.83 nm  f=0.0000  <S**2>=0.000
       5 ->  9         0.11521
       8 ->  9         0.69766
 This state for optimization and/or second-order correction.
 Total Energy, E(CIS/TDA) =  -112.214126372    
 Copying the excited state density for this state as the 1-particle RhoCI density.
 
 Excited State   2:      Singlet-B1     7.9423 eV  156.11 nm  f=0.0087  <S**2>=0.000
       6 ->  9         0.70395
 
 Excited State   3:      Singlet-A1    10.4208 eV  118.98 nm  f=0.2865  <S**2>=0.000
       6 -> 12         0.24220
       7 ->  9         0.65076
 SavETr:  write IOETrn=   770 NScale= 10 NData=  16 NLR=1 NState=    3 LETran=      64.
 The selected state is a singlet.
 CISGrd: IGrad=3 NXY=1 DFT=F
 CISAX will form     1 AO SS matrices at one time.
 NMat=     1 NSing=     1 JSym2X= 2.
 Leave Link  914 at Thu Feb 22 17:42:33 2024, MaxMem=   104857600 cpu:               0.2 elap:               0.2
 (Enter /apps/gaussian/g16-c01-avx2/g16/l1002.exe)
 Minotr:  Closed shell wavefunction.
          Computing CIS/TDA/TD derivatives.
          Using Z-Vector for PSCF gradient.
          Skipping F1 and S1 gradient terms here.
          IDoAtm=1111
          Frozen-core window.
          Direct CPHF calculation.
          Differentiating once with respect to electric field.
                with respect to dipole field.
          Differentiating once with respect to nuclear coordinates.
          Requested convergence is 1.0D-10 RMS, and 1.0D-09 maximum.
          NewPWx=F KeepS1=T KeepF1=T KeepIn=T MapXYZ=F SortEE=F KeepMc=T.
 Keep R1 ints in memory in symmetry-blocked form, NReq=808418.
 FoFCou: FMM=F IPFlag=           0 FMFlag=           0 FMFlg1=           0
         NFxFlg=           0 DoJE=F BraDBF=F KetDBF=F FulRan=T
         wScrn=  0.000000 ICntrl=       600 IOpCl=  0 I1Cent=           0 NGrid=           0
         NMat0=    1 NMatS0=     78 NMatT0=    0 NMatD0=    1 NMtDS0=    0 NMtDT0=    0
 Petite list used in FoFCou.
          MDV=     104857600 using IRadAn=       5.
          Solving linear equations separately, MaxMat=       0.
          There are     1 degrees of freedom in the 1st order CPHF.  IDoFFX=0 NUNeed=     1.
 LinEq1:  Iter=  0 NonCon=     1 RMS=1.16D-01 Max=5.36D-01 NDo=     1
 AX will form     1 AO Fock derivatives at one time.
 LinEq1:  Iter=  1 NonCon=     1 RMS=1.58D-02 Max=5.61D-02 NDo=     1
 LinEq1:  Iter=  2 NonCon=     1 RMS=2.58D-03 Max=8.49D-03 NDo=     1
 LinEq1:  Iter=  3 NonCon=     1 RMS=2.39D-04 Max=8.01D-04 NDo=     1
 LinEq1:  Iter=  4 NonCon=     1 RMS=1.75D-05 Max=5.66D-05 NDo=     1
 LinEq1:  Iter=  5 NonCon=     1 RMS=9.30D-07 Max=3.39D-06 NDo=     1
 LinEq1:  Iter=  6 NonCon=     1 RMS=5.91D-08 Max=2.41D-07 NDo=     1
 LinEq1:  Iter=  7 NonCon=     1 RMS=2.79D-09 Max=1.12D-08 NDo=     1
 LinEq1:  Iter=  8 NonCon=     1 RMS=1.38D-10 Max=5.79D-10 NDo=     1
 LinEq1:  Iter=  9 NonCon=     0 RMS=4.46D-12 Max=1.65D-11 NDo=     1
 Linear equations converged to 1.000D-10 1.000D-09 after     9 iterations.
          There are     1 degrees of freedom in the 1st order CPHF.  IDoFFX=0 NUNeed=     1.
 LinEq1:  Iter=  0 NonCon=     1 RMS=4.05D-01 Max=2.27D+00 NDo=     1
 LinEq1:  Iter=  1 NonCon=     1 RMS=1.70D-02 Max=7.87D-02 NDo=     1
 LinEq1:  Iter=  2 NonCon=     1 RMS=9.91D-04 Max=4.56D-03 NDo=     1
 LinEq1:  Iter=  3 NonCon=     0 RMS=2.21D-18 Max=1.23D-17 NDo=     1
 Linear equations converged to 1.000D-10 1.000D-09 after     3 iterations.
 End of Minotr F.D. properties file   721 does not exist.
 End of Minotr F.D. properties file   722 does not exist.
 End of Minotr F.D. properties file   788 does not exist.
 Leave Link 1002 at Thu Feb 22 17:42:35 2024, MaxMem=   104857600 cpu:               0.1 elap:               0.1
 (Enter /apps/gaussian/g16-c01-avx2/g16/l1101.exe)
 Using compressed Sx but separate Hx and Fx, NAtomX=     4.
 Will process      5 centers per pass.
 Leave Link 1101 at Thu Feb 22 17:42:36 2024, MaxMem=   104857600 cpu:               0.0 elap:               0.0
 (Enter /apps/gaussian/g16-c01-avx2/g16/l1102.exe)
 Use density number 6.
 Symmetrizing basis deriv contribution to polar:
 IMax=3 JMax=2 DiffMx= 0.00D+00
 Leave Link 1102 at Thu Feb 22 17:42:38 2024, MaxMem=   104857600 cpu:               0.0 elap:               0.3
 (Enter /apps/gaussian/g16-c01-avx2/g16/l1110.exe)
 Forming Gx(P) for the SCF density, NAtomX=     4.
 Integral derivatives from FoFJK, PRISM(SPDF).
 Do as many integral derivatives as possible in FoFJK.
 G2DrvN: MDV=     104857060.
 G2DrvN: will do     5 centers at a time, making    1 passes.
 Calling FoFCou, ICntrl=  3107 FMM=F I1Cent=   0 AccDes= 0.00D+00.
 FoFJK:  IHMeth= 1 ICntrl=    3107 DoSepK=F KAlg= 0 I1Cent=           0 FoldK=F
 IRaf=         0 NMat=       1 IRICut=       1 DoRegI=T DoRafI=F ISym2E= 1 IDoP0=0 IntGTp=1.
 FoFCou: FMM=F IPFlag=           0 FMFlag=      100000 FMFlg1=           0
         NFxFlg=           0 DoJE=F BraDBF=F KetDBF=F FulRan=T
         wScrn=  0.000000 ICntrl=      3107 IOpCl=  0 I1Cent=           0 NGrid=           0
         NMat0=    1 NMatS0=      1 NMatT0=    0 NMatD0=    1 NMtDS0=    0 NMtDT0=    0
 Petite list used in FoFCou.
 Forming Gx(P) for generalized density number  6 NAtomX=     4.
 Integral derivatives from FoFJK, PRISM(SPDF).
 Do as many integral derivatives as possible in FoFJK.
 G2DrvN: MDV=     104857060.
 G2DrvN: will do     5 centers at a time, making    1 passes.
 Calling FoFCou, ICntrl=  3107 FMM=F I1Cent=   0 AccDes= 0.00D+00.
 Forming Gx(T) for CIS/TDA/TD state  1 NAtomX=     4.
 Integral derivatives from FoFJK, PRISM(SPDF).
 Do as many integral derivatives as possible in FoFJK.
 G2DrvN: MDV=     104857060.
 G2DrvN: will do     5 centers at a time, making    1 passes.
 Calling FoFCou, ICntrl=  3107 FMM=F I1Cent=   0 AccDes= 0.00D+00.
 End of G2Drv F.D. properties file   721 does not exist.
 End of G2Drv F.D. properties file   722 does not exist.
 End of G2Drv F.D. properties file   788 does not exist.
 Leave Link 1110 at Thu Feb 22 17:42:39 2024, MaxMem=   104857600 cpu:               0.1 elap:               0.1
 (Enter /apps/gaussian/g16-c01-avx2/g16/l1002.exe)
 Minotr:  Closed shell wavefunction.
          IDoAtm=1111
          Frozen-core window.
          Direct CPHF calculation.
          Differentiating once with respect to electric field.
                with respect to dipole field.
          Differentiating once with respect to nuclear coordinates.
          Requested convergence is 1.0D-08 RMS, and 1.0D-07 maximum.
          Secondary convergence is 1.0D-12 RMS, and 1.0D-12 maximum.
          NewPWx=T KeepS1=T KeepF1=T KeepIn=T MapXYZ=F SortEE=F KeepMc=T.
 Keep R1 ints in memory in symmetry-blocked form, NReq=808376.
 FoFCou: FMM=F IPFlag=           0 FMFlag=           0 FMFlg1=           0
         NFxFlg=           0 DoJE=F BraDBF=F KetDBF=F FulRan=T
         wScrn=  0.000000 ICntrl=       600 IOpCl=  0 I1Cent=           0 NGrid=           0
         NMat0=    1 NMatS0=     78 NMatT0=    0 NMatD0=    1 NMtDS0=    0 NMtDT0=    0
 Petite list used in FoFCou.
          MDV=     104857600 using IRadAn=       1.
          Solving linear equations simultaneously, MaxMat=       0.
          There are    15 degrees of freedom in the 1st order CPHF.  IDoFFX=6 NUNeed=    15.
     12 vectors produced by pass  0 Test12= 2.13D-16 6.67D-09 XBig12= 4.75D+00 1.92D+00.
 AX will form    12 AO Fock derivatives at one time.
     12 vectors produced by pass  1 Test12= 2.13D-16 6.67D-09 XBig12= 2.49D-01 2.72D-01.
      7 vectors produced by pass  2 Test12= 2.13D-16 6.67D-09 XBig12= 3.39D-04 1.37D-02.
      1 vectors produced by pass  3 Test12= 2.13D-16 6.67D-09 XBig12= 6.61D-09 6.73D-05.
 InvSVY:  IOpt=1 It=  1 EMax= 4.44D-16
 Solved reduced A of dimension    32 with    12 vectors.
 FullF1:  Do perturbations      1 to      15.
 Isotropic polarizability for W=    0.000000        6.77 Bohr**3.
 Saving first derivative matrices.
 End of Minotr F.D. properties file   721 does not exist.
 End of Minotr F.D. properties file   722 does not exist.
 End of Minotr F.D. properties file   788 does not exist.
 Leave Link 1002 at Thu Feb 22 17:42:39 2024, MaxMem=   104857600 cpu:               0.0 elap:               0.0
 (Enter /apps/gaussian/g16-c01-avx2/g16/l1014.exe)
 This link is doing    15 degrees of freedom
 Form MO integral derivatives with frozen-active canonical formalism.
 CISSec: MDV=     104856560
 Doing CIS/TDA second derivatives, IDoFFX=6 IOneXC=4 IRadAn=         1.
 Frozen orbitals handled with amplitudes over full window.
 Frozen-core window:  NFC=   2 NFV=   0.
 Symmetry is being used.
 Keep R1, R2, and R3 ints in memory in symmetry-blocked form, NReq=808806.
 FoFCou: FMM=F IPFlag=           0 FMFlag=           0 FMFlg1=           0
         NFxFlg=           0 DoJE=F BraDBF=F KetDBF=F FulRan=T
         wScrn=  0.000000 ICntrl=       600 IOpCl=  0 I1Cent=           0 NGrid=           0
         NMat0=    1 NMatS0=     78 NMatT0=    0 NMatD0=    1 NMtDS0=    0 NMtDT0=    0
 Petite list used in FoFCou.
 The selected state is a singlet.
 CISGrX: IGrad=3 NXY=1 DFT=F
 CISAX will form    15 AO SS matrices at one time.
 NMat=    15 NSing=    15 JSym2X= 2.
     10 vectors produced by pass  0 Test12= 1.60D-16 6.67D-09 XBig12= 2.62D-01 4.96D-01.
 AX will form    10 AO Fock derivatives at one time.
      6 vectors produced by pass  1 Test12= 1.60D-16 6.67D-09 XBig12= 1.95D-03 4.28D-02.
      2 vectors produced by pass  2 Test12= 1.60D-16 6.67D-09 XBig12= 4.30D-05 5.09D-03.
      1 vectors produced by pass  3 Test12= 1.60D-16 6.67D-09 XBig12= 2.33D-07 2.69D-04.
      1 vectors produced by pass  4 Test12= 1.60D-16 6.67D-09 XBig12= 2.19D-10 8.67D-06.
      1 vectors produced by pass  5 Test12= 1.60D-16 6.67D-09 XBig12= 7.87D-13 4.62D-07.
      1 vectors produced by pass  6 Test12= 1.60D-16 6.67D-09 XBig12= 4.49D-16 1.34D-08.
 InvSVY:  IOpt=1 It=  1 EMax= 2.22D-16
 Solved reduced A of dimension    22 with    10 vectors.
 Tx.T =  6.75D-16 for pert.     3
 Tx.T = -2.22D-16 for pert.     6
 Tx.T =  1.55D-16 for pert.    15
 Tx.T =  4.76D-17 for pert.    12
 Tx.T =  2.22D-17 for pert.    11
 Tx.T =  2.13D-17 for pert.     9
 Tx.T = -1.11D-17 for pert.    14
 Tx.T = -1.02D-17 for pert.     8
 Tx.T = -6.85D-19 for pert.     5
 Tx.T = -3.47D-19 for pert.     2
 SavDET:  read IOETrn=   770 NScale= 10 NData=  16 NLR=1 NState=    3 NDeriv=    0 LETran=      64.
 SavDET: write IOETrn=   770 NScale= 10 NData=  16 NLR=1 NState=    3 NDeriv=   15 LETran=     304.
 TDDxLx will form    15 C1x/S1x matrices at one time.
 Interchange theorem applied.
 Leave Link 1014 at Thu Feb 22 17:42:45 2024, MaxMem=   104857600 cpu:               0.1 elap:               1.8
 (Enter /apps/gaussian/g16-c01-avx2/g16/l601.exe)
 Copying SCF densities to generalized density rwf, IOpCl= 0 IROHF=0.

 **********************************************************************

            Population analysis using the SCF Density.

 **********************************************************************

 Orbital symmetries:
       Occupied  (A1) (A1) (A1) (A1) (B2) (A1) (B1) (B2)
       Virtual   (B1) (A1) (B2) (A1)
 The electronic state is 1-A1.
 Alpha  occ. eigenvalues --  -20.29375 -11.10570  -1.28043  -0.81599  -0.62584
 Alpha  occ. eigenvalues --   -0.51691  -0.39541  -0.36046
 Alpha virt. eigenvalues --    0.25322   0.63144   0.77368   0.78797
          Condensed to atoms (all electrons):
               1          2          3          4
     1  C    4.810331   0.379926   0.379926   0.404244
     2  H    0.379926   0.598918  -0.029117  -0.020395
     3  H    0.379926  -0.029117   0.598918  -0.020395
     4  O    0.404244  -0.020395  -0.020395   7.803457
 Mulliken charges:
               1
     1  C    0.025573
     2  H    0.070669
     3  H    0.070669
     4  O   -0.166911
 Sum of Mulliken charges =   0.00000
 Mulliken charges with hydrogens summed into heavy atoms:
               1
     1  C    0.166911
     4  O   -0.166911
 APT charges:
               1
     1  C   -0.335925
     2  H    0.132015
     3  H    0.132015
     4  O    0.071894
 Sum of APT charges =  -0.00000
 APT charges with hydrogens summed into heavy atoms:
               1
     1  C   -0.071894
     4  O    0.071894
 Electronic spatial extent (au):  <R**2>=             61.0719
 Charge=              0.0000 electrons
 Dipole moment (field-independent basis, Debye):
    X=             -0.0000    Y=             -0.0000    Z=             -1.6142  Tot=              1.6142
 Quadrupole moment (field-independent basis, Debye-Ang):
   XX=            -10.4631   YY=            -10.3938   ZZ=            -11.1840
   XY=              0.0000   XZ=              0.0000   YZ=             -0.0000
 Traceless Quadrupole moment (field-independent basis, Debye-Ang):
   XX=              0.2172   YY=              0.2865   ZZ=             -0.5037
   XY=              0.0000   XZ=              0.0000   YZ=             -0.0000
 Octapole moment (field-independent basis, Debye-Ang**2):
  XXX=              0.0000  YYY=             -0.0000  ZZZ=              2.9046  XYY=              0.0000
  XXY=             -0.0000  XXZ=              1.7065  XZZ=              0.0000  YZZ=             -0.0000
  YYZ=              0.3096  XYZ=             -0.0000
 Hexadecapole moment (field-independent basis, Debye-Ang**3):
 XXXX=             -6.9281 YYYY=            -14.3934 ZZZZ=            -42.4394 XXXY=             -0.0000
 XXXZ=             -0.0000 YYYX=             -0.0000 YYYZ=              0.0000 ZZZX=             -0.0000
 ZZZY=             -0.0000 XXYY=             -3.8308 XXZZ=             -8.1076 YYZZ=             -8.6137
 XXYZ=             -0.0000 YYXZ=              0.0000 ZZXY=              0.0000
 N-N= 2.975529430578D+01 E-N=-3.247095501489D+02  KE= 1.113085214395D+02
 Symmetry A1   KE= 1.008023098386D+02
 Symmetry A2   KE= 0.000000000000D+00
 Symmetry B1   KE= 3.603903720652D+00
 Symmetry B2   KE= 6.902307880327D+00
  Exact polarizability:       2.076       0.000       6.387       0.000       0.000      10.917
 Approx polarizability:       1.861       0.000       4.749       0.000       0.000      14.824
 No NMR shielding tensors so no spin-rotation constants.
 Leave Link  601 at Thu Feb 22 17:42:47 2024, MaxMem=   104857600 cpu:               0.0 elap:               0.1
 (Enter /apps/gaussian/g16-c01-avx2/g16/l701.exe)
 ... and contract with generalized density number  6.
 Compute integral second derivatives.
 Compute integral first derivatives.
 Density matrix is not symmetric, so symmetry will not be used here.
 Leave Link  701 at Thu Feb 22 17:42:51 2024, MaxMem=   104857600 cpu:               0.1 elap:               0.1
 (Enter /apps/gaussian/g16-c01-avx2/g16/l702.exe)
 L702 exits ... SP integral derivatives will be done elsewhere.
 Leave Link  702 at Thu Feb 22 17:42:53 2024, MaxMem=   104857600 cpu:               0.0 elap:               0.1
 (Enter /apps/gaussian/g16-c01-avx2/g16/l703.exe)
 Integral derivatives from FoFJK, PRISM(SPDF).
 Compute integral second derivatives, UseDBF=F ICtDFT=           0.
 Calling FoFJK, ICntrl=  10105127 FMM=F ISym2X=1 I1Cent= 0 IOpClX= 0 NMat=1 NMatS=1 NMatT=0.
 FoFJK:  IHMeth= 1 ICntrl=10105127 DoSepK=F KAlg= 0 I1Cent=           0 FoldK=F
 IRaf=         0 NMat=       1 IRICut=       1 DoRegI=T DoRafI=F ISym2E= 1 IDoP0=0 IntGTp=1.
 FoFCou: FMM=F IPFlag=           0 FMFlag=      100000 FMFlg1=         800
         NFxFlg=           0 DoJE=F BraDBF=F KetDBF=F FulRan=T
         wScrn=  0.000000 ICntrl=  10105127 IOpCl=  0 I1Cent=           0 NGrid=           0
         NMat0=    1 NMatS0=      1 NMatT0=    0 NMatD0=    1 NMtDS0=    0 NMtDT0=    0
 Petite list used in FoFCou.
 Compute integral first derivatives, UseDBF=F ICtDFT=           0.
 Density matrix is not symmetric, so symmetry will not be used here.
 Calling FoFJK, ICntrl=  10002127 FMM=F ISym2X=0 I1Cent= 0 IOpClX= 0 NMat=1 NMatS=1 NMatT=0.
 Leave Link  703 at Thu Feb 22 17:42:59 2024, MaxMem=   104857600 cpu:               0.1 elap:               0.3
 (Enter /apps/gaussian/g16-c01-avx2/g16/l716.exe)
 Dipole        =-1.21417588D-17-2.84670085D-17-1.70544628D-01
 Polarizability= 2.07617935D+00 3.88176062D-16 6.38673616D+00
                 2.30960798D-16 7.52796398D-17 1.09167808D+01
 Full mass-weighted force constant matrix:
 Low frequencies --- -464.0077  -61.5611  -26.7714  -18.3824   -0.0011   -0.0006
 Low frequencies ---    0.0009 1081.0232 1562.0191
 ******    1 imaginary frequencies (negative Signs) ****** 
 Diagonal vibrational polarizability:
       16.4999229       0.2115777       0.3171272
 Harmonic frequencies (cm**-1), IR intensities (KM/Mole), Raman scattering
 activities (A**4/AMU), depolarization ratios for plane and unpolarized
 incident light, reduced masses (AMU), force constants (mDyne/A),
 and normal coordinates:
                      1                      2                      3
                     B1                     B2                     A1
 Frequencies --   -464.0049              1081.0226              1562.0191
 Red. masses --      1.3223                 1.2920                 1.1711
 Frc consts  --      0.1677                 0.8896                 1.6835
 IR Inten    --    132.0061                 8.6734                 4.7105
  Atom  AN      X      Y      Z        X      Y      Z        X      Y      Z
     1   6    -0.16  -0.00  -0.00    -0.00  -0.14   0.00    -0.00   0.00   0.03
     2   1     0.70  -0.00  -0.00     0.00   0.25   0.65     0.00   0.32   0.63
     3   1     0.70   0.00   0.00     0.00   0.25  -0.65     0.00  -0.32   0.63
     4   8     0.04  -0.00   0.00     0.00   0.07  -0.00    -0.00  -0.00  -0.10
                      4                      5                      6
                     A1                     A1                     B2
 Frequencies --   1811.2506              3627.6350              3795.8410
 Red. masses --      5.1704                 1.0529                 1.1190
 Frc consts  --      9.9939                 8.1638                 9.4990
 IR Inten    --     21.6225                42.9355                 6.3415
  Atom  AN      X      Y      Z        X      Y      Z        X      Y      Z
     1   6     0.00   0.00   0.48    -0.00   0.00   0.06     0.00  -0.10   0.00
     2   1    -0.00  -0.49  -0.30     0.00   0.62  -0.34    -0.00   0.61  -0.35
     3   1    -0.00   0.49  -0.30     0.00  -0.62  -0.34    -0.00   0.61   0.35
     4   8     0.00  -0.00  -0.33     0.00   0.00  -0.00    -0.00  -0.00  -0.00

 -------------------
 - Thermochemistry -
 -------------------
 Temperature   298.150 Kelvin.  Pressure   1.00000 Atm.
 Atom     1 has atomic number  6 and mass  12.00000
 Atom     2 has atomic number  1 and mass   1.00783
 Atom     3 has atomic number  1 and mass   1.00783
 Atom     4 has atomic number  8 and mass  15.99491
 Molecular mass:    30.01056 amu.
 Principal axes and moments of inertia in atomic units:
                           1         2         3
     Eigenvalues --     6.39795  52.48337  58.88132
           X            0.00000  -0.00000   1.00000
           Y            0.00000   1.00000   0.00000
           Z            1.00000  -0.00000   0.00000
 This molecule is an asymmetric top.
 Rotational symmetry number  2.
 Rotational temperatures (Kelvin)     13.53777     1.65031     1.47099
 Rotational constants (GHZ):         282.08131    34.38692    30.65049
    1 imaginary frequencies ignored.
 Zero-point vibrational energy      71044.8 (Joules/Mol)
                                   16.98012 (Kcal/Mol)
 Vibrational temperatures:   1555.35  2247.40  2605.99  5219.36  5461.37
          (Kelvin)
 
 Zero-point correction=                           0.027060 (Hartree/Particle)
 Thermal correction to Energy=                    0.029924
 Thermal correction to Enthalpy=                  0.030868
 Thermal correction to Gibbs Free Energy=         0.005941
 Sum of electronic and zero-point Energies=           -112.187067
 Sum of electronic and thermal Energies=              -112.184202
 Sum of electronic and thermal Enthalpies=            -112.183258
 Sum of electronic and thermal Free Energies=         -112.208185
 
                     E (Thermal)             CV                S
                      KCal/Mol        Cal/Mol-Kelvin    Cal/Mol-Kelvin
 Total                   18.778              6.343             52.464
 Electronic               0.000              0.000              0.000
 Translational            0.889              2.981             36.130
 Rotational               0.889              2.981             16.254
 Vibrational             17.000              0.381              0.079
                       Q            Log10(Q)             Ln(Q)
 Total Bot       0.185075D-02         -2.732653         -6.292165
 Total V=0       0.517445D+10          9.713864         22.366999
 Vib (Bot)       0.359871D-12        -12.443853        -28.653031
 Vib (V=0)       0.100615D+01          0.002663          0.006133
 Electronic      0.100000D+01          0.000000          0.000000
 Translational   0.646197D+07          6.810365         15.681445
 Rotational      0.795858D+03          2.900836          6.679421
 
                                                 ch2o S1 freq from optimised geom
 etry
                                                             IR Spectrum
 
     3     3                                                            1       1               1                                    
     7     6                                                            8       5               0                                    
     9     2                                                            1       6               8                                    
     6     8                                                            1       2               1                                    
 
     X     X                                                            X       X               X                                    
     X     X                                                            X       X               X                                    
     X     X                                                            X                       X                                    
           X                                                            X                       X                                    
           X                                                            X                                                            
           X                                                            X                                                            
           X                                                            X                                                            
           X                                                            X                                                            
           X                                                            X                                                            
           X                                                            X                                                            
           X                                                                                                                         
           X                                                                                                                         
           X                                                                                                                         
           X                                                                                                                         
           X                                                                                                                         
           X                                                                                                                         
           X                                                                                                                         
           X                                                                                                                         
           X                                                                                                                         
           X                                                                                                                         
 
 ***** Axes restored to original set *****
 -------------------------------------------------------------------
 Center     Atomic                   Forces (Hartrees/Bohr)
 Number     Number              X              Y              Z
 -------------------------------------------------------------------
      1        6           0.000000000   -0.000000000    0.000157701
      2        1          -0.000000000   -0.000257515   -0.000154162
      3        1          -0.000000000    0.000257515   -0.000154162
      4        8           0.000000000    0.000000000    0.000150622
 -------------------------------------------------------------------
 Cartesian Forces:  Max     0.000257515 RMS     0.000137755
 -------------------------------------------------------------------
 Center     Atomic                Nonadiabatic Coup. (Bohr^-1)
 Number     Number              X              Y              Z
 -------------------------------------------------------------------
      1        6          -0.000000000   -0.000000000    0.000000000
      2        1          -0.308336451    0.000000000    0.000000000
      3        1           0.308336451   -0.000000000   -0.000000000
      4        8          -0.000000000    0.000000000   -0.000000000
 -------------------------------------------------------------------
 Cartesian Nonad. Coup.:  Max     0.308336451 RMS     0.125877829
 Force constants in Cartesian coordinates: 
                1             2             3             4             5 
      1 -0.237380D-01
      2  0.000000D+00  0.802063D+00
      3  0.000000D+00  0.000000D+00  0.109880D+01
      4  0.849351D-02  0.000000D+00  0.000000D+00 -0.312541D-02
      5  0.000000D+00 -0.374696D+00 -0.165962D+00  0.000000D+00  0.382674D+00
      6  0.000000D+00 -0.171619D+00 -0.149903D+00  0.000000D+00  0.182340D+00
      7  0.849351D-02  0.000000D+00  0.000000D+00 -0.298087D-02  0.000000D+00
      8  0.000000D+00 -0.374696D+00  0.165962D+00  0.000000D+00 -0.114943D-01
      9  0.000000D+00  0.171619D+00 -0.149903D+00  0.000000D+00 -0.189464D-01
     10  0.675097D-02  0.000000D+00  0.000000D+00 -0.238722D-02  0.000000D+00
     11  0.000000D+00 -0.526709D-01  0.000000D+00  0.000000D+00  0.351608D-02
     12  0.000000D+00  0.000000D+00 -0.798990D+00  0.000000D+00  0.256835D-02
                6             7             8             9            10 
      6  0.166106D+00
      7  0.000000D+00 -0.312541D-02
      8  0.189464D-01  0.000000D+00  0.382674D+00
      9  0.134488D-01  0.000000D+00 -0.182340D+00  0.166106D+00
     10  0.000000D+00 -0.238722D-02  0.000000D+00  0.000000D+00 -0.197653D-02
     11 -0.296679D-01  0.000000D+00  0.351608D-02  0.296679D-01  0.000000D+00
     12 -0.296521D-01  0.000000D+00 -0.256835D-02 -0.296521D-01  0.000000D+00
               11            12 
     11  0.456387D-01
     12  0.000000D+00  0.858294D+00
 FormGI is forming the generalized inverse of G from B-inverse, IUseBI=4.
 Force constants in internal coordinates: 
                1             2             3             4             5 
      1  0.486411D+00
      2 -0.412583D-02  0.486411D+00
      3  0.121471D-01  0.121471D-01  0.858294D+00
      4  0.317624D-02  0.317624D-02 -0.369126D-01  0.845112D-01
      5  0.123737D-01 -0.155499D-01  0.184563D-01 -0.422556D-01  0.905715D-01
      6 -0.155499D-01  0.123737D-01  0.184563D-01 -0.422556D-01 -0.483159D-01
      7  0.000000D+00  0.000000D+00  0.000000D+00  0.000000D+00  0.000000D+00
                6             7 
      6  0.905715D-01
      7  0.000000D+00 -0.944972D-02
 Leave Link  716 at Thu Feb 22 17:43:07 2024, MaxMem=   104857600 cpu:               0.0 elap:               0.0
 (Enter /apps/gaussian/g16-c01-avx2/g16/l103.exe)

 GradGradGradGradGradGradGradGradGradGradGradGradGradGradGradGradGradGrad
 Berny optimization.
 Red2BG is reusing G-inverse.
 Internal  Forces:  Max     0.000299973 RMS     0.000170260
 Search for a local minimum.
 Step number   1 out of a maximum of    2
 All quantities printed in internal units (Hartrees-Bohrs-Radians)
 Second derivative matrix not updated -- analytic derivatives used.
 The second derivative matrix:
                          R1        R2        R3        A1        A2
           R1           0.48641
           R2          -0.00413   0.48641
           R3           0.01215   0.01215   0.85829
           A1           0.00318   0.00318  -0.03691   0.08451
           A2           0.01237  -0.01555   0.01846  -0.04226   0.09057
           A3          -0.01555   0.01237   0.01846  -0.04226  -0.04832
           D1          -0.00000   0.00000   0.00000  -0.00000  -0.00000
                          A3        D1
           A3           0.09057
           D1           0.00000  -0.00945
 ITU=  0
     Eigenvalues ---   -0.00945   0.12386   0.13668   0.48166   0.49274
     Eigenvalues ---    0.86182
 Eigenvalue     1 is  -9.45D-03 should be greater than     0.000000 Eigenvector:
                          D1        A3        R2        R1        A2
   1                    1.00000  -0.00000  -0.00000   0.00000   0.00000
                          A1        R3
   1                    0.00000   0.00000
 Angle between quadratic step and forces=  10.94 degrees.
 Linear search not attempted -- first point.
 Iteration  1 RMS(Cart)=  0.00031922 RMS(Int)=  0.00000001
 Iteration  2 RMS(Cart)=  0.00000001 RMS(Int)=  0.00000000
 ITry= 1 IFail=0 DXMaxC= 4.96D-04 DCOld= 1.00D+10 DXMaxT= 3.00D-01 DXLimC= 3.00D+00 Rises=F
 Variable       Old X    -DE/DX   Delta X   Delta X   Delta X     New X
                                 (Linear)    (Quad)   (Total)
    R1        2.03775   0.00030   0.00000   0.00062   0.00062   2.03837
    R2        2.03775   0.00030   0.00000   0.00062   0.00062   2.03837
    R3        2.46541   0.00015   0.00000   0.00015   0.00015   2.46556
    A1        2.12799  -0.00001   0.00000  -0.00009  -0.00009   2.12790
    A2        2.07760   0.00001   0.00000   0.00005   0.00005   2.07764
    A3        2.07760   0.00001   0.00000   0.00005   0.00005   2.07764
    D1        3.14159   0.00000   0.00000   0.00000   0.00000   3.14159
         Item               Value     Threshold  Converged?
 Maximum Force            0.000300     0.000450     YES
 RMS     Force            0.000170     0.000300     YES
 Maximum Displacement     0.000496     0.001800     YES
 RMS     Displacement     0.000319     0.001200     YES
 Predicted change in Energy=-1.980666D-07
 Optimization completed.
    -- Stationary point found.
                           ----------------------------
                           !   Optimized Parameters   !
                           ! (Angstroms and Degrees)  !
 --------------------------                            --------------------------
 ! Name  Definition              Value          Derivative Info.                !
 --------------------------------------------------------------------------------
 ! R1    R(1,2)                  1.0783         -DE/DX =    0.0003              !
 ! R2    R(1,3)                  1.0783         -DE/DX =    0.0003              !
 ! R3    R(1,4)                  1.3046         -DE/DX =    0.0002              !
 ! A1    A(2,1,3)              121.9251         -DE/DX =    0.0                 !
 ! A2    A(2,1,4)              119.0375         -DE/DX =    0.0                 !
 ! A3    A(3,1,4)              119.0375         -DE/DX =    0.0                 !
 ! D1    D(2,1,4,3)            180.0            -DE/DX =    0.0                 !
 --------------------------------------------------------------------------------
 GradGradGradGradGradGradGradGradGradGradGradGradGradGradGradGradGradGrad

 Leave Link  103 at Thu Feb 22 17:43:08 2024, MaxMem=   104857600 cpu:               0.0 elap:               0.0
 (Enter /apps/gaussian/g16-c01-avx2/g16/l9999.exe)
 -------------------------------------------------------------------
 Center     Atomic                Nonadiabatic Coup. (Bohr^-1)
 Number     Number              X              Y              Z
 -------------------------------------------------------------------
      1        6          -0.000000000   -0.000000000    0.000000000
      2        1          -0.308336451    0.000000000    0.000000000
      3        1           0.308336451   -0.000000000   -0.000000000
      4        8          -0.000000000    0.000000000   -0.000000000
 -------------------------------------------------------------------
 Cartesian Nonad. Coup.:  Max     0.308336451 RMS     0.125877829
 Electronic transition elements 
                 1             2             3 
      1  -0.112214D+03 -0.112048D+03 -0.111957D+03
      2   0.000000D+00 -0.210850D+00  0.000000D+00
      3   0.000000D+00  0.000000D+00  0.000000D+00
      4   0.000000D+00  0.000000D+00  0.105934D+01
      5   0.000000D+00  0.143985D+00  0.000000D+00
      6   0.000000D+00  0.000000D+00  0.000000D+00
      7   0.000000D+00  0.000000D+00  0.109667D+00
      8   0.000000D+00  0.000000D+00  0.000000D+00
      9   0.000000D+00  0.165423D+01  0.000000D+00
     10   0.109867D+01  0.000000D+00  0.000000D+00
     11   0.000000D+00  0.000000D+00  0.756041D-01
     12   0.000000D+00  0.000000D+00  0.991286D-01
     13   0.000000D+00  0.000000D+00  0.204600D+00
     14   0.225700D-01  0.000000D+00  0.000000D+00
     15   0.000000D+00  0.450808D-01  0.000000D+00
     16   0.000000D+00  0.000000D+00  0.000000D+00
 Electronic Transition Derivatives 
                 1             2             3             4             5 
      1   0.000000D+00  0.000000D+00  0.000000D+00  0.000000D+00  0.000000D+00
      2   0.000000D+00 -0.954057D+00  0.000000D+00  0.000000D+00 -0.554992D-01
      3  -0.802022D+00  0.000000D+00  0.000000D+00 -0.195144D+00  0.000000D+00
      4   0.000000D+00  0.000000D+00  0.000000D+00  0.000000D+00  0.000000D+00
      5   0.000000D+00  0.416841D+00  0.000000D+00  0.000000D+00 -0.111456D-01
      6  -0.237173D+00  0.000000D+00  0.000000D+00  0.178183D-01  0.000000D+00
      7   0.000000D+00  0.000000D+00  0.000000D+00  0.000000D+00  0.000000D+00
      8   0.139338D+01  0.000000D+00  0.000000D+00 -0.135118D+00  0.000000D+00
      9   0.000000D+00 -0.291790D+00  0.000000D+00  0.000000D+00 -0.755969D+00
     10   0.000000D+00  0.000000D+00 -0.220845D+00  0.000000D+00  0.000000D+00
     11   0.000000D+00  0.000000D+00  0.000000D+00  0.000000D+00  0.000000D+00
     12   0.000000D+00  0.000000D+00  0.000000D+00  0.000000D+00  0.000000D+00
     13   0.000000D+00  0.000000D+00  0.000000D+00  0.000000D+00  0.000000D+00
     14   0.000000D+00  0.000000D+00 -0.959877D-02  0.000000D+00  0.000000D+00
     15   0.000000D+00  0.225793D+00  0.000000D+00  0.000000D+00  0.175511D-01
     16  -0.185412D+00  0.000000D+00  0.000000D+00 -0.571180D-02  0.000000D+00
                 6             7             8             9            10 
      1   0.000000D+00  0.000000D+00  0.000000D+00  0.000000D+00  0.000000D+00
      2   0.000000D+00  0.000000D+00  0.142477D-01 -0.107743D-01  0.000000D+00
      3   0.000000D+00  0.696355D-01  0.000000D+00  0.000000D+00  0.696355D-01
      4   0.000000D+00  0.000000D+00  0.000000D+00  0.000000D+00  0.000000D+00
      5   0.000000D+00  0.000000D+00  0.588751D-02  0.370400D-02  0.000000D+00
      6   0.000000D+00 -0.635830D-02  0.000000D+00  0.000000D+00 -0.635830D-02
      7   0.000000D+00  0.000000D+00  0.000000D+00  0.000000D+00  0.000000D+00
      8   0.000000D+00 -0.110805D+00  0.000000D+00  0.000000D+00 -0.110805D+00
      9   0.000000D+00  0.000000D+00  0.579248D-01 -0.102407D+00  0.000000D+00
     10   0.601913D-02  0.000000D+00  0.399154D-01  0.597266D-01  0.000000D+00
     11   0.000000D+00 -0.126683D-01  0.000000D+00  0.000000D+00  0.126683D-01
     12   0.000000D+00  0.126683D-01  0.000000D+00  0.000000D+00 -0.126683D-01
     13   0.000000D+00  0.000000D+00  0.000000D+00  0.000000D+00  0.000000D+00
     14   0.178758D-01  0.000000D+00 -0.284725D-02 -0.345845D-02  0.000000D+00
     15   0.000000D+00  0.000000D+00 -0.724021D-02 -0.822908D-02  0.000000D+00
     16   0.000000D+00  0.530497D-02  0.000000D+00  0.000000D+00  0.530497D-02
                11            12            13            14            15 
      1   0.000000D+00  0.000000D+00  0.000000D+00  0.000000D+00  0.000000D+00
      2   0.142477D-01  0.107743D-01  0.000000D+00  0.270039D-01  0.000000D+00
      3   0.000000D+00  0.000000D+00  0.558734D-01  0.000000D+00  0.000000D+00
      4   0.000000D+00  0.000000D+00  0.000000D+00  0.000000D+00  0.000000D+00
      5   0.588751D-02 -0.370400D-02  0.000000D+00 -0.629375D-03  0.000000D+00
      6   0.000000D+00  0.000000D+00 -0.510171D-02  0.000000D+00  0.000000D+00
      7   0.000000D+00  0.000000D+00  0.000000D+00  0.000000D+00  0.000000D+00
      8   0.000000D+00  0.000000D+00  0.356727D+00  0.000000D+00  0.000000D+00
      9   0.579248D-01  0.102407D+00  0.000000D+00  0.640119D+00  0.000000D+00
     10  -0.399154D-01  0.597266D-01  0.000000D+00  0.000000D+00 -0.125472D+00
     11   0.000000D+00  0.000000D+00  0.000000D+00  0.000000D+00  0.000000D+00
     12   0.000000D+00  0.000000D+00  0.000000D+00  0.000000D+00  0.000000D+00
     13   0.000000D+00  0.000000D+00  0.000000D+00  0.000000D+00  0.000000D+00
     14   0.284725D-02 -0.345845D-02  0.000000D+00  0.000000D+00 -0.109589D-01
     15  -0.724021D-02  0.822908D-02  0.000000D+00 -0.307065D-02  0.000000D+00
     16   0.000000D+00  0.000000D+00 -0.489813D-02  0.000000D+00  0.000000D+00

 ----------------------------------------------------------------------

 Electric dipole moment (input orientation):
 (Debye = 10**-18 statcoulomb cm , SI units = C m)
                  (au)            (Debye)         (10**-30 SI)
   Tot        0.170545D+00      0.433481D+00      0.144594D+01
   x          0.000000D+00      0.000000D+00      0.000000D+00
   y          0.000000D+00      0.000000D+00      0.000000D+00
   z         -0.170545D+00     -0.433481D+00     -0.144594D+01

 Dipole polarizability, Alpha (input orientation).
 (esu units = cm**3 , SI units = C**2 m**2 J**-1)
 Alpha(0;0):
               (au)            (10**-24 esu)      (10**-40 SI)
   iso        0.645990D+01      0.957258D+00      0.106509D+01
   aniso      0.765697D+01      0.113465D+01      0.126246D+01
   xx         0.207618D+01      0.307658D+00      0.342316D+00
   yx         0.000000D+00      0.000000D+00      0.000000D+00
   yy         0.638674D+01      0.946417D+00      0.105303D+01
   zx         0.000000D+00      0.000000D+00      0.000000D+00
   zy         0.000000D+00      0.000000D+00      0.000000D+00
   zz         0.109168D+02      0.161770D+01      0.179993D+01

 ----------------------------------------------------------------------

 Dipole orientation:
     6         -0.00000000          0.00000000          1.11863314
     1         -0.00000000          1.78161041          2.10771927
     1          0.00000000         -1.78161041          2.10771927
     8          0.00000000         -0.00000000         -1.34677789

 Electric dipole moment (dipole orientation):
 (Debye = 10**-18 statcoulomb cm , SI units = C m)
                  (au)            (Debye)         (10**-30 SI)
   Tot        0.170545D+00      0.433481D+00      0.144594D+01
   x          0.000000D+00      0.000000D+00      0.000000D+00
   y          0.000000D+00      0.000000D+00      0.000000D+00
   z          0.170545D+00      0.433481D+00      0.144594D+01

 Dipole polarizability, Alpha (dipole orientation).
 (esu units = cm**3 , SI units = C**2 m**2 J**-1)
 Alpha(0;0):
               (au)            (10**-24 esu)      (10**-40 SI)
   iso        0.645990D+01      0.957258D+00      0.106509D+01
   aniso      0.765697D+01      0.113465D+01      0.126246D+01
   xx         0.207618D+01      0.307658D+00      0.342316D+00
   yx         0.000000D+00      0.000000D+00      0.000000D+00
   yy         0.638674D+01      0.946417D+00      0.105303D+01
   zx         0.000000D+00      0.000000D+00      0.000000D+00
   zy         0.000000D+00      0.000000D+00      0.000000D+00
   zz         0.109168D+02      0.161770D+01      0.179993D+01

 ----------------------------------------------------------------------
 Unable to Open any file for archive entry.
 1\1\GINC-CX3-7-2\Freq\RCIS-FC\STO-3G\C1H2O1\RK820\22-Feb-2024\0\\#p fr
 eq cis(root=1)/sto-3g geom=check\\ch2o S1 freq from optimised geometry
 \\0,1\C,0.,0.,-0.5919551634\H,0.,-0.9427876303,-1.1153570026\H,0.,0.94
 27876303,-1.1153570026\O,0.,0.,0.7126841685\\Version=ES64L-G16RevC.01\
 State=1-A1\HF=-112.3397039\RMSD=3.106e-10\RMSF=1.378e-04\ZeroPoint=0.0
 270595\Thermal=0.0299241\ETot=-112.1842023\HTot=-112.1832581\GTot=-112
 .2081854\Dipole=0.,0.,-0.1705446\DipoleDeriv=-0.5813621,0.,0.,0.,0.087
 8856,0.,0.,0.,-0.5142974,0.2321381,0.,0.,0.,0.0328226,0.0742388,0.,0.0
 765882,0.1310856,0.2321381,0.,0.,0.,0.0328226,-0.0742388,0.,-0.0765882
 ,0.1310856,0.1170858,0.,0.,0.,-0.1535308,0.,0.,0.,0.2521262\Polar=2.07
 61793,0.,6.3867362,0.,0.,10.9167808\PG=C02V [C2(C1O1),SGV(H2)]\NImag=1
 \\-0.02373799,0.,0.80206292,0.,0.,1.09879586,0.00849351,0.,0.,-0.00312
 541,0.,-0.37469602,-0.16596225,0.,0.38267422,0.,-0.17161878,-0.1499028
 2,0.,0.18234031,0.16610618,0.00849351,0.,0.,-0.00298087,0.,0.,-0.00312
 541,0.,-0.37469602,0.16596225,0.,-0.01149428,0.01894641,0.,0.38267422,
 0.,0.17161878,-0.14990282,0.,-0.01894641,0.01344876,0.,-0.18234031,0.1
 6610618,0.00675097,0.,0.,-0.00238722,0.,0.,-0.00238722,0.,0.,-0.001976
 53,0.,-0.05267088,0.,0.,0.00351608,-0.02966794,0.,0.00351608,0.0296679
 4,0.,0.04563872,0.,0.,-0.79899022,0.,0.00256835,-0.02965212,0.,-0.0025
 6835,-0.02965212,0.,0.,0.85829445\\0.,0.,-0.00015770,0.,0.00025751,0.0
 0015416,0.,-0.00025751,0.00015416,0.,0.,-0.00015062\\\@
 The archive entry for this job was punched.


 ... I FELL INTO A REVERIE ... THE ATOMS WERE GAMBOLING BEFORE MY EYES
 ... I SAW HOW TWO SMALL ONES UNITED TO FORM A PAIR;
 HOW THE LARGER ONES SEIZED TWO OF THE SMALLER ONES;
 HOW STILL LARGER ONES KEPT HOLD OF THREE OR FOUR
 SMALLER ONES ... I SAW HOW THE LARGER ONES FORMED A CHAIN ...
 THIS WAS THE ORIGIN OF THE STRUCTURE THEORY.

                                   -- C.F.KEKULE VON STRADONITZ
 Job cpu time:       0 days  0 hours  0 minutes  1.7 seconds.
 Elapsed time:       0 days  0 hours  0 minutes 15.9 seconds.
 File lengths (MBytes):  RWF=      6 Int=      0 D2E=      0 Chk=     16 Scr=      1
 Normal termination of Gaussian 16 at Thu Feb 22 17:43:10 2024.
