 Entering Gaussian System, Link 0=g16
 Input=formaldehyde_es_STO-3G_opt.gjf
 Output=formaldehyde_es_STO-3G_opt.log
 Initial command:
 /apps/gaussian/g16-c01-avx2/g16/l1.exe "/var/tmp/pbs.8971892.pbs/Gau-1915224.inp" -scrdir="/var/tmp/pbs.8971892.pbs/"
 Entering Link 1 = /apps/gaussian/g16-c01-avx2/g16/l1.exe PID=   1915299.
  
 Copyright (c) 1988-2019, Gaussian, Inc.  All Rights Reserved.
  
 This is part of the Gaussian(R) 16 program.  It is based on
 the Gaussian(R) 09 system (copyright 2009, Gaussian, Inc.),
 the Gaussian(R) 03 system (copyright 2003, Gaussian, Inc.),
 the Gaussian(R) 98 system (copyright 1998, Gaussian, Inc.),
 the Gaussian(R) 94 system (copyright 1995, Gaussian, Inc.),
 the Gaussian 92(TM) system (copyright 1992, Gaussian, Inc.),
 the Gaussian 90(TM) system (copyright 1990, Gaussian, Inc.),
 the Gaussian 88(TM) system (copyright 1988, Gaussian, Inc.),
 the Gaussian 86(TM) system (copyright 1986, Carnegie Mellon
 University), and the Gaussian 82(TM) system (copyright 1983,
 Carnegie Mellon University). Gaussian is a federally registered
 trademark of Gaussian, Inc.
  
 This software contains proprietary and confidential information,
 including trade secrets, belonging to Gaussian, Inc.
  
 This software is provided under written license and may be
 used, copied, transmitted, or stored only in accord with that
 written license.
  
 The following legend is applicable only to US Government
 contracts under FAR:
  
                    RESTRICTED RIGHTS LEGEND
  
 Use, reproduction and disclosure by the US Government is
 subject to restrictions as set forth in subparagraphs (a)
 and (c) of the Commercial Computer Software - Restricted
 Rights clause in FAR 52.227-19.
  
 Gaussian, Inc.
 340 Quinnipiac St., Bldg. 40, Wallingford CT 06492
  
  
 ---------------------------------------------------------------
 Warning -- This program may not be used in any manner that
 competes with the business of Gaussian, Inc. or will provide
 assistance to any competitor of Gaussian, Inc.  The licensee
 of this program is prohibited from giving any competitor of
 Gaussian, Inc. access to this program.  By using this program,
 the user acknowledges that Gaussian, Inc. is engaged in the
 business of creating and licensing software in the field of
 computational chemistry and represents and warrants to the
 licensee that it is not a competitor of Gaussian, Inc. and that
 it will not use this program in any manner prohibited above.
 ---------------------------------------------------------------
  

 Cite this work as:
 Gaussian 16, Revision C.01,
 M. J. Frisch, G. W. Trucks, H. B. Schlegel, G. E. Scuseria, 
 M. A. Robb, J. R. Cheeseman, G. Scalmani, V. Barone, 
 G. A. Petersson, H. Nakatsuji, X. Li, M. Caricato, A. V. Marenich, 
 J. Bloino, B. G. Janesko, R. Gomperts, B. Mennucci, H. P. Hratchian, 
 J. V. Ortiz, A. F. Izmaylov, J. L. Sonnenberg, D. Williams-Young, 
 F. Ding, F. Lipparini, F. Egidi, J. Goings, B. Peng, A. Petrone, 
 T. Henderson, D. Ranasinghe, V. G. Zakrzewski, J. Gao, N. Rega, 
 G. Zheng, W. Liang, M. Hada, M. Ehara, K. Toyota, R. Fukuda, 
 J. Hasegawa, M. Ishida, T. Nakajima, Y. Honda, O. Kitao, H. Nakai, 
 T. Vreven, K. Throssell, J. A. Montgomery, Jr., J. E. Peralta, 
 F. Ogliaro, M. J. Bearpark, J. J. Heyd, E. N. Brothers, K. N. Kudin, 
 V. N. Staroverov, T. A. Keith, R. Kobayashi, J. Normand, 
 K. Raghavachari, A. P. Rendell, J. C. Burant, S. S. Iyengar, 
 J. Tomasi, M. Cossi, J. M. Millam, M. Klene, C. Adamo, R. Cammi, 
 J. W. Ochterski, R. L. Martin, K. Morokuma, O. Farkas, 
 J. B. Foresman, and D. J. Fox, Gaussian, Inc., Wallingford CT, 2019.
 
 ******************************************
 Gaussian 16:  ES64L-G16RevC.01  3-Jul-2019
                22-Feb-2024 
 ******************************************
 %oldchk=/rds/general/user/rk820/home/dibs-g16/fc_ht/formaldehyde/formaldehyde_es
 _STO-3G.chk
 %chk=/rds/general/user/rk820/home/dibs-g16/fc_ht/formaldehyde/formaldehyde_es_ST
 O-3G_opt.chk
 Copying data from "/rds/general/user/rk820/home/dibs-g16/fc_ht/formaldehyde/formaldehyde_es_STO-3G.chk" to current chk file "/rds/general/user/rk820/home/dibs-g16/fc_ht/formaldehyde/formaldehyde_es_STO-3G_opt.chk"
 IOpt=  2 FromEx=T IUOpen= 4 IOptOp= 5 NList=   0 IFRang= 0 IUIn= 4 IUOut= 2.
 -------------------------------------------
 # CIS/STO-3G geom=check Density=Current Opt
 -------------------------------------------
 1/18=20,19=15,29=2,38=1/1,3;
 2/9=110,12=2,40=1/2;
 3/6=3,11=9,14=-4,25=1,30=1,71=1/1,2,3,8;
 4//1;
 5/5=2,38=5/2;
 8/6=1,10=1/1;
 9/15=2,42=1/14;
 10/5=4/2;
 6/7=2,8=2,9=2,10=2,22=-1/1;
 7/12=6,13=5/1,2,3,16;
 1/18=20,19=15/3(2);
 2/9=110/2;
 99//99;
 2/9=110/2;
 3/6=3,11=9,14=-2,25=1,30=1,71=1/1,2,3,8;
 4/5=5,16=3,69=1/1;
 5/5=2,38=5/2;
 8/6=1,10=1/1;
 9/15=2,42=1,49=4/14;
 10/5=4/2;
 7/12=6,13=5/1,2,3,16;
 1/18=20,19=15/3(-8);
 2/9=110/2;
 6/7=2,8=2,9=2,10=2,22=-1/1;
 99/9=10/99;
 ----------------------------------------------------------------------
 HF/STO-3G for formaldehyde, calculating the first two excited states a
 nd optimizing its geometry.
 ----------------------------------------------------------------------
 Structure from the checkpoint file:  "/rds/general/user/rk820/home/dibs-g16/fc_ht/formaldehyde/formaldehyde_es_STO-3G_opt.chk"
 Charge =  0 Multiplicity = 1
 Redundant internal coordinates found in file.  (old form).
 C,0,-0.5018872686,-0.3688974972,0.
 H,0,0.0025477186,-1.3477056253,0.
 H,0,-1.6017582726,-0.4218482504,0.
 O,0,0.1061955746,0.684775536,0.
 Recover connectivity data from disk.

 GradGradGradGradGradGradGradGradGradGradGradGradGradGradGradGradGradGrad
 Berny optimization.
 Initialization pass.
                           ----------------------------
                           !    Initial Parameters    !
                           ! (Angstroms and Degrees)  !
 --------------------------                            --------------------------
 ! Name  Definition              Value          Derivative Info.                !
 --------------------------------------------------------------------------------
 ! R1    R(1,2)                  1.1011         estimate D2E/DX2                !
 ! R2    R(1,3)                  1.1011         estimate D2E/DX2                !
 ! R3    R(1,4)                  1.2165         estimate D2E/DX2                !
 ! A1    A(2,1,3)              114.5084         estimate D2E/DX2                !
 ! A2    A(2,1,4)              122.7458         estimate D2E/DX2                !
 ! A3    A(3,1,4)              122.7458         estimate D2E/DX2                !
 ! D1    D(2,1,4,3)            180.0            estimate D2E/DX2                !
 --------------------------------------------------------------------------------
 Trust Radius=3.00D-01 FncErr=1.00D-07 GrdErr=1.00D-07 EigMax=2.50D+02 EigMin=1.00D-04
 Number of steps in this run=     20 maximum allowed number of steps=    100.
 GradGradGradGradGradGradGradGradGradGradGradGradGradGradGradGradGradGrad

                          Input orientation:                          
 ---------------------------------------------------------------------
 Center     Atomic      Atomic             Coordinates (Angstroms)
 Number     Number       Type             X           Y           Z
 ---------------------------------------------------------------------
      1          6           0       -0.501887   -0.368897    0.000000
      2          1           0        0.002548   -1.347706    0.000000
      3          1           0       -1.601758   -0.421848   -0.000000
      4          8           0        0.106196    0.684776   -0.000000
 ---------------------------------------------------------------------
                    Distance matrix (angstroms):
                    1          2          3          4
     1  C    0.000000
     2  H    1.101145   0.000000
     3  H    1.101145   1.852298   0.000000
     4  O    1.216549   2.035122   2.035122   0.000000
 Stoichiometry    CH2O
 Framework group  C2V[C2(CO),SGV(H2)]
 Deg. of freedom     3
 Full point group                 C2V     NOp   4
 Largest Abelian subgroup         C2V     NOp   4
 Largest concise Abelian subgroup C2      NOp   2
                         Standard orientation:                         
 ---------------------------------------------------------------------
 Center     Atomic      Atomic             Coordinates (Angstroms)
 Number     Number       Type             X           Y           Z
 ---------------------------------------------------------------------
      1          6           0        0.000000   -0.000000   -0.533822
      2          1           0       -0.000000   -0.926149   -1.129445
      3          1           0        0.000000    0.926149   -1.129445
      4          8           0       -0.000000    0.000000    0.682727
 ---------------------------------------------------------------------
 Rotational constants (GHZ):         292.3076086          38.0571270          33.6730486
 Standard basis: STO-3G (5D, 7F)
 There are     7 symmetry adapted cartesian basis functions of A1  symmetry.
 There are     0 symmetry adapted cartesian basis functions of A2  symmetry.
 There are     2 symmetry adapted cartesian basis functions of B1  symmetry.
 There are     3 symmetry adapted cartesian basis functions of B2  symmetry.
 There are     7 symmetry adapted basis functions of A1  symmetry.
 There are     0 symmetry adapted basis functions of A2  symmetry.
 There are     2 symmetry adapted basis functions of B1  symmetry.
 There are     3 symmetry adapted basis functions of B2  symmetry.
    12 basis functions,    36 primitive gaussians,    12 cartesian basis functions
     8 alpha electrons        8 beta electrons
       nuclear repulsion energy        31.0920308439 Hartrees.
 NAtoms=    4 NActive=    4 NUniq=    3 SFac= 1.78D+00 NAtFMM=   60 NAOKFM=F Big=F
 Integral buffers will be    131072 words long.
 Raffenetti 1 integral format.
 Two-electron integral symmetry is turned on.
 One-electron integrals computed using PRISM.
 NBasis=    12 RedAO= T EigKep=  2.41D-01  NBF=     7     0     2     3
 NBsUse=    12 1.00D-06 EigRej= -1.00D+00 NBFU=     7     0     2     3
 ExpMin= 1.69D-01 ExpMax= 1.31D+02 ExpMxC= 1.31D+02 IAcc=3 IRadAn=         5 AccDes= 0.00D+00
 Harris functional with IExCor=  205 and IRadAn=       5 diagonalized for initial guess.
 HarFok:  IExCor=  205 AccDes= 0.00D+00 IRadAn=         5 IDoV= 1 UseB2=F ITyADJ=14
 ICtDFT=  3500011 ScaDFX=  1.000000  1.000000  1.000000  1.000000
 FoFCou: FMM=F IPFlag=           0 FMFlag=      100000 FMFlg1=           0
         NFxFlg=           0 DoJE=T BraDBF=F KetDBF=T FulRan=T
         wScrn=  0.000000 ICntrl=       500 IOpCl=  0 I1Cent=   200000004 NGrid=           0
         NMat0=    1 NMatS0=      1 NMatT0=    0 NMatD0=    1 NMtDS0=    0 NMtDT0=    0
 Petite list used in FoFCou.
 Initial guess orbital symmetries:
       Occupied  (A1) (A1) (A1) (A1) (B2) (A1) (B1) (B2)
       Virtual   (B1) (A1) (B2) (A1)
 The electronic state of the initial guess is 1-A1.
 Keep R1 ints in memory in symmetry-blocked form, NReq=807829.
 Requested convergence on RMS density matrix=1.00D-08 within 128 cycles.
 Requested convergence on MAX density matrix=1.00D-06.
 Requested convergence on             energy=1.00D-06.
 No special actions if energy rises.
 SCF Done:  E(RHF) =  -112.354346976     A.U. after    9 cycles
            NFock=  9  Conv=0.93D-08     -V/T= 2.0089
 ExpMin= 1.69D-01 ExpMax= 1.31D+02 ExpMxC= 1.31D+02 IAcc=3 IRadAn=         5 AccDes= 0.00D+00
 HarFok:  IExCor=  205 AccDes= 0.00D+00 IRadAn=         5 IDoV=-2 UseB2=F ITyADJ=14
 ICtDFT= 12500011 ScaDFX=  1.000000  1.000000  1.000000  1.000000
 Range of M.O.s used for correlation:     3    12
 NBasis=    12 NAE=     8 NBE=     8 NFC=     2 NFV=     0
 NROrb=     10 NOA=     6 NOB=     6 NVA=     4 NVB=     4
 Keep R1, R2, and R3 ints in memory in symmetry-blocked form, NReq=808268.
 Orbital symmetries:
       Occupied  (A1) (A1) (A1) (A1) (B2) (A1) (B1) (B2)
       Virtual   (B1) (A1) (B2) (A1)
    12 initial guesses have been made.
 Convergence on wavefunction:    0.000001000000000
 Iteration     1 Dimension    12 NMult     0 NNew     12
 CISAX will form    12 AO SS matrices at one time.
 New state      2 was old state      3
 New state      3 was old state      4
 Iteration     2 Dimension    18 NMult    12 NNew      6
 New state      3 was old state      4
 Iteration     3 Dimension    19 NMult    18 NNew      1
 Iteration     4 Dimension    20 NMult    19 NNew      1
 Iteration     5 Dimension    21 NMult    20 NNew      1
 ***********************************************************************
 Excited states from <AA,BB:AA,BB> singles matrix:
 ***********************************************************************
 
 Ground to excited state transition densities written to RWF  633
 Ground to excited state transition electric dipole moments (Au):
       state          X           Y           Z        Dip. S.      Osc.
         1         0.0000      0.0000     -0.0000      0.0000      0.0000
         2         0.2258     -0.0000      0.0000      0.0510      0.0117
         3        -0.0000     -0.0000      1.0141      1.0283      0.3067
 Ground to excited state transition velocity dipole moments (Au):
       state          X           Y           Z        Dip. S.      Osc.
         1        -0.0000      0.0000     -0.0000      0.0000      0.0000
         2        -0.1609     -0.0000      0.0000      0.0259      0.0500
         3         0.0000      0.0000      0.0530      0.0028      0.0042
 Ground to excited state transition magnetic dipole moments (Au):
       state          X           Y           Z
         1         0.0000      0.0000      1.1045
         2        -0.0000     -1.6535     -0.0000
         3         0.0000     -0.0000     -0.0000
 Ground to excited state transition velocity quadrupole moments (Au):
       state          XX          YY          ZZ          XY          XZ          YZ
         1        -0.0000      0.0000      0.0000      0.0250      0.0000     -0.0000
         2         0.0000     -0.0000     -0.0000      0.0000     -0.0649      0.0000
         3         0.0990      0.0779      0.1523      0.0000     -0.0000     -0.0000
 <0|del|b> * <b|rxdel|0> + <0|del|b> * <b|delr+rdel|0>
 Rotatory Strengths (R) in cgs (10**-40 erg-esu-cm/Gauss)
       state          XX          YY          ZZ    R(velocity)    E-M Angle
         1        -0.0000     -0.0000     -0.0000     -0.0000       90.00
         2         0.0000     -0.0000      0.0000      0.0000       90.00
         3         0.0000     -0.0000      0.0000     -0.0000       90.00
 1/2[<0|r|b>*<b|rxdel|0> + (<0|rxdel|b>*<b|r|0>)*]
 Rotatory Strengths (R) in cgs (10**-40 erg-esu-cm/Gauss)
       state          XX          YY          ZZ     R(length)
         1        -0.0000     -0.0000      0.0000      0.0000
         2         0.0000     -0.0000      0.0000     -0.0000
         3         0.0000     -0.0000      0.0000      0.0000
  1/2[<0|del|b>*<b|r|0> + (<0|r|b>*<b|del|0>)*] (Au)
       state          X           Y           Z        Dip. S.   Osc.(frdel)
         1        -0.0000      0.0000      0.0000      0.0000      0.0000
         2        -0.0363      0.0000      0.0000      0.0363      0.0242
         3        -0.0000     -0.0000      0.0538     -0.0538     -0.0358

 Excitation energies and oscillator strengths:
 
 Excited State   1:      Singlet-A2     4.2172 eV  294.00 nm  f=0.0000  <S**2>=0.000
       5 ->  9         0.13769
       8 ->  9         0.69357
 This state for optimization and/or second-order correction.
 Total Energy, E(CIS/TDA) =  -112.199367071    
 Copying the excited state density for this state as the 1-particle RhoCI density.
 
 Excited State   2:      Singlet-B1     9.3943 eV  131.98 nm  f=0.0117  <S**2>=0.000
       6 ->  9         0.70366
 
 Excited State   3:      Singlet-A1    12.1756 eV  101.83 nm  f=0.3067  <S**2>=0.000
       6 -> 12         0.19134
       7 ->  9         0.65796
       8 -> 11        -0.12460
 SavETr:  write IOETrn=   770 NScale= 10 NData=  16 NLR=1 NState=    3 LETran=      64.
          IDoAtm=1111
          Differentiating once with respect to electric field.
                with respect to dipole field.
          Differentiating once with respect to nuclear coordinates.
 Keep R1 ints in memory in symmetry-blocked form, NReq=808418.
          There are     1 degrees of freedom in the 1st order CPHF.  IDoFFX=0 NUNeed=     1.
 LinEq1:  Iter=  0 NonCon=     1 RMS=9.10D-02 Max=4.17D-01 NDo=     1
 AX will form     1 AO Fock derivatives at one time.
 LinEq1:  Iter=  1 NonCon=     1 RMS=1.27D-02 Max=5.24D-02 NDo=     1
 LinEq1:  Iter=  2 NonCon=     1 RMS=1.45D-03 Max=4.51D-03 NDo=     1
 LinEq1:  Iter=  3 NonCon=     1 RMS=2.94D-04 Max=1.16D-03 NDo=     1
 LinEq1:  Iter=  4 NonCon=     1 RMS=2.96D-05 Max=9.99D-05 NDo=     1
 LinEq1:  Iter=  5 NonCon=     1 RMS=1.32D-06 Max=5.02D-06 NDo=     1
 LinEq1:  Iter=  6 NonCon=     1 RMS=8.24D-08 Max=2.49D-07 NDo=     1
 LinEq1:  Iter=  7 NonCon=     1 RMS=4.89D-09 Max=2.14D-08 NDo=     1
 LinEq1:  Iter=  8 NonCon=     1 RMS=2.19D-10 Max=7.64D-10 NDo=     1
 LinEq1:  Iter=  9 NonCon=     0 RMS=7.18D-12 Max=2.05D-11 NDo=     1
 Linear equations converged to 1.000D-10 1.000D-09 after     9 iterations.
 End of Minotr F.D. properties file   721 does not exist.
 End of Minotr F.D. properties file   722 does not exist.
 End of Minotr F.D. properties file   788 does not exist.

 **********************************************************************

            Population analysis using the CI Density.

 **********************************************************************

 Orbital symmetries:
       Occupied  (A1) (A1) (A1) (A1) (B2) (A1) (B1) (B2)
       Virtual   (B1) (A1) (B2) (A1)
 The electronic state is 1-A1.
 Alpha  occ. eigenvalues --  -20.31277 -11.12510  -1.33757  -0.80784  -0.63301
 Alpha  occ. eigenvalues --   -0.54562  -0.44330  -0.35440
 Alpha virt. eigenvalues --    0.28203   0.62894   0.73458   0.91320
          Condensed to atoms (all electrons):
               1          2          3          4
     1  C    5.056506   0.369785   0.369785   0.338224
     2  H    0.369785   0.579892  -0.022994  -0.014069
     3  H    0.369785  -0.022994   0.579892  -0.014069
     4  O    0.338224  -0.014069  -0.014069   7.730385
 Mulliken charges:
               1
     1  C   -0.134301
     2  H    0.087386
     3  H    0.087386
     4  O   -0.040471
 Sum of Mulliken charges =  -0.00000
 Mulliken charges with hydrogens summed into heavy atoms:
               1
     1  C    0.040471
     4  O   -0.040471
 Electronic spatial extent (au):  <R**2>=             58.2730
 Charge=             -0.0000 electrons
 Dipole moment (field-independent basis, Debye):
    X=              0.0000    Y=             -0.0000    Z=             -0.6535  Tot=              0.6535
 Quadrupole moment (field-independent basis, Debye-Ang):
   XX=            -11.3706   YY=             -9.4583   ZZ=            -10.9328
   XY=              0.0000   XZ=             -0.0000   YZ=              0.0000
 Traceless Quadrupole moment (field-independent basis, Debye-Ang):
   XX=             -0.7834   YY=              1.1289   ZZ=             -0.3456
   XY=              0.0000   XZ=             -0.0000   YZ=              0.0000
 Octapole moment (field-independent basis, Debye-Ang**2):
  XXX=             -0.0000  YYY=             -0.0000  ZZZ=              2.5272  XYY=              0.0000
  XXY=             -0.0000  XXZ=              1.8010  XZZ=              0.0000  YZZ=             -0.0000
  YYZ=              0.4984  XYZ=             -0.0000
 Hexadecapole moment (field-independent basis, Debye-Ang**3):
 XXXX=             -7.7366 YYYY=            -13.3204 ZZZZ=            -38.8640 XXXY=             -0.0000
 XXXZ=              0.0000 YYYX=             -0.0000 YYYZ=              0.0000 ZZZX=              0.0000
 ZZZY=              0.0000 XXYY=             -3.7966 XXZZ=             -8.2504 YYZZ=             -7.1816
 XXYZ=             -0.0000 YYXZ=             -0.0000 ZZXY=              0.0000
 N-N= 3.109203084386D+01 E-N=-3.270770080159D+02  KE= 1.115026795098D+02
 Symmetry A1   KE= 1.009829514631D+02
 Symmetry A2   KE= 0.000000000000D+00
 Symmetry B1   KE= 6.066836868402D+00
 Symmetry B2   KE= 4.452891178264D+00
 Calling FoFJK, ICntrl=  10005127 FMM=F ISym2X=1 I1Cent= 0 IOpClX= 0 NMat=1 NMatS=1 NMatT=0.
 ***** Axes restored to original set *****
 -------------------------------------------------------------------
 Center     Atomic                   Forces (Hartrees/Bohr)
 Number     Number              X              Y              Z
 -------------------------------------------------------------------
      1        6          -0.099426781   -0.172284614   -0.000000000
      2        1          -0.001073177    0.017496040    0.000000000
      3        1           0.015685758    0.007824329    0.000000000
      4        8           0.084814201    0.146964245   -0.000000000
 -------------------------------------------------------------------
 Cartesian Forces:  Max     0.172284614 RMS     0.075814542

 GradGradGradGradGradGradGradGradGradGradGradGradGradGradGradGradGradGrad
 Berny optimization.
 FormGI is forming the generalized inverse of G from B-inverse, IUseBI=4.
 Internal  Forces:  Max     0.169681873 RMS     0.064863231
 Search for a local minimum.
 Step number   1 out of a maximum of   20
 All quantities printed in internal units (Hartrees-Bohrs-Radians)
 Mixed Optimization -- RFO/linear search
 Second derivative matrix not updated -- first step.
 The second derivative matrix:
                          R1        R2        R3        A1        A2
           R1           0.33556
           R2           0.00000   0.33556
           R3           0.00000   0.00000   0.96929
           A1           0.00000   0.00000   0.00000   0.16000
           A2           0.00000   0.00000   0.00000   0.00000   0.16000
           A3           0.00000   0.00000   0.00000   0.00000   0.00000
           D1           0.00000   0.00000   0.00000   0.00000   0.00000
                          A3        D1
           A3           0.16000
           D1           0.00000   0.04118
 ITU=  0
     Eigenvalues ---    0.04118   0.16000   0.16000   0.33556   0.33556
     Eigenvalues ---    0.96929
 RFO step:  Lambda=-3.09436900D-02 EMin= 4.11848468D-02
 Linear search not attempted -- first point.
 Iteration  1 RMS(Cart)=  0.04591797 RMS(Int)=  0.00062557
 Iteration  2 RMS(Cart)=  0.00067054 RMS(Int)=  0.00000023
 Iteration  3 RMS(Cart)=  0.00000018 RMS(Int)=  0.00000000
 ClnCor:  largest displacement from symmetrization is 1.76D-09 for atom     1.
 Variable       Old X    -DE/DX   Delta X   Delta X   Delta X     New X
                                 (Linear)    (Quad)   (Total)
    R1        2.08086  -0.01604   0.00000  -0.04378  -0.04378   2.03709
    R2        2.08086  -0.01604   0.00000  -0.04378  -0.04378   2.03709
    R3        2.29894   0.16968   0.00000   0.16964   0.16964   2.46859
    A1        1.99855   0.00980   0.00000   0.05130   0.05130   2.04985
    A2        2.14232  -0.00490   0.00000  -0.02565  -0.02565   2.11667
    A3        2.14232  -0.00490   0.00000  -0.02565  -0.02565   2.11667
    D1        3.14159   0.00000   0.00000   0.00000   0.00000   3.14159
         Item               Value     Threshold  Converged?
 Maximum Force            0.169682     0.000450     NO 
 RMS     Force            0.064863     0.000300     NO 
 Maximum Displacement     0.080757     0.001800     NO 
 RMS     Displacement     0.046042     0.001200     NO 
 Predicted change in Energy=-1.603747D-02
 GradGradGradGradGradGradGradGradGradGradGradGradGradGradGradGradGradGrad

                          Input orientation:                          
 ---------------------------------------------------------------------
 Center     Atomic      Atomic             Coordinates (Angstroms)
 Number     Number       Type             X           Y           Z
 ---------------------------------------------------------------------
      1          6           0       -0.522096   -0.403915    0.000000
      2          1           0       -0.003860   -1.349151    0.000000
      3          1           0       -1.599804   -0.428120   -0.000000
      4          8           0        0.130858    0.727510   -0.000000
 ---------------------------------------------------------------------
                    Distance matrix (angstroms):
                    1          2          3          4
     1  C    0.000000
     2  H    1.077980   0.000000
     3  H    1.077980   1.842644   0.000000
     4  O    1.306320   2.081027   2.081027   0.000000
 Stoichiometry    CH2O
 Framework group  C2V[C2(CO),SGV(H2)]
 Deg. of freedom     3
 Full point group                 C2V     NOp   4
 Largest Abelian subgroup         C2V     NOp   4
 Largest concise Abelian subgroup C2      NOp   2
                         Standard orientation:                         
 ---------------------------------------------------------------------
 Center     Atomic      Atomic             Coordinates (Angstroms)
 Number     Number       Type             X           Y           Z
 ---------------------------------------------------------------------
      1          6           0       -0.000000    0.000000   -0.583204
      2          1           0        0.000000   -0.921322   -1.142852
      3          1           0        0.000000    0.921322   -1.142852
      4          8           0        0.000000   -0.000000    0.723116
 ---------------------------------------------------------------------
 Rotational constants (GHZ):         295.3787674          33.9019900          30.4115190
 Standard basis: STO-3G (5D, 7F)
 There are     7 symmetry adapted cartesian basis functions of A1  symmetry.
 There are     0 symmetry adapted cartesian basis functions of A2  symmetry.
 There are     2 symmetry adapted cartesian basis functions of B1  symmetry.
 There are     3 symmetry adapted cartesian basis functions of B2  symmetry.
 There are     7 symmetry adapted basis functions of A1  symmetry.
 There are     0 symmetry adapted basis functions of A2  symmetry.
 There are     2 symmetry adapted basis functions of B1  symmetry.
 There are     3 symmetry adapted basis functions of B2  symmetry.
    12 basis functions,    36 primitive gaussians,    12 cartesian basis functions
     8 alpha electrons        8 beta electrons
       nuclear repulsion energy        29.6908551342 Hartrees.
 NAtoms=    4 NActive=    4 NUniq=    3 SFac= 1.78D+00 NAtFMM=   60 NAOKFM=F Big=F
 Integral buffers will be    131072 words long.
 Raffenetti 1 integral format.
 Two-electron integral symmetry is turned on.
 One-electron integrals computed using PRISM.
 NBasis=    12 RedAO= T EigKep=  2.58D-01  NBF=     7     0     2     3
 NBsUse=    12 1.00D-06 EigRej= -1.00D+00 NBFU=     7     0     2     3
 Initial guess from the checkpoint file:  "/rds/general/user/rk820/home/dibs-g16/fc_ht/formaldehyde/formaldehyde_es_STO-3G_opt.chk"
 B after Tr=    -0.000000    0.000000   -0.000000
         Rot=    1.000000   -0.000000   -0.000000   -0.000000 Ang=   0.00 deg.
 Initial guess orbital symmetries:
       Occupied  (A1) (A1) (A1) (A1) (B2) (A1) (B1) (B2)
       Virtual   (B1) (A1) (B2) (A1)
 ExpMin= 1.69D-01 ExpMax= 1.31D+02 ExpMxC= 1.31D+02 IAcc=3 IRadAn=         5 AccDes= 0.00D+00
 Harris functional with IExCor=  205 and IRadAn=       5 diagonalized for initial guess.
 HarFok:  IExCor=  205 AccDes= 0.00D+00 IRadAn=         5 IDoV= 1 UseB2=F ITyADJ=14
 ICtDFT=  3500011 ScaDFX=  1.000000  1.000000  1.000000  1.000000
 FoFCou: FMM=F IPFlag=           0 FMFlag=      100000 FMFlg1=           0
         NFxFlg=           0 DoJE=T BraDBF=F KetDBF=T FulRan=T
         wScrn=  0.000000 ICntrl=       500 IOpCl=  0 I1Cent=   200000004 NGrid=           0
         NMat0=    1 NMatS0=      1 NMatT0=    0 NMatD0=    1 NMtDS0=    0 NMtDT0=    0
 Petite list used in FoFCou.
 Keep R1 ints in memory in symmetry-blocked form, NReq=807829.
 Requested convergence on RMS density matrix=1.00D-08 within 128 cycles.
 Requested convergence on MAX density matrix=1.00D-06.
 Requested convergence on             energy=1.00D-06.
 No special actions if energy rises.
 SCF Done:  E(RHF) =  -112.340131383     A.U. after   10 cycles
            NFock= 10  Conv=0.39D-08     -V/T= 2.0094
 ExpMin= 1.69D-01 ExpMax= 1.31D+02 ExpMxC= 1.31D+02 IAcc=3 IRadAn=         5 AccDes= 0.00D+00
 HarFok:  IExCor=  205 AccDes= 0.00D+00 IRadAn=         5 IDoV=-2 UseB2=F ITyADJ=14
 ICtDFT= 12500011 ScaDFX=  1.000000  1.000000  1.000000  1.000000
 Range of M.O.s used for correlation:     3    12
 NBasis=    12 NAE=     8 NBE=     8 NFC=     2 NFV=     0
 NROrb=     10 NOA=     6 NOB=     6 NVA=     4 NVB=     4
 Keep R1, R2, and R3 ints in memory in symmetry-blocked form, NReq=808268.
 Orbital symmetries:
       Occupied  (A1) (A1) (A1) (A1) (B2) (A1) (B1) (B2)
       Virtual   (B1) (A1) (B2) (A1)
 Generating guess from densities on rwf.
 Convergence on wavefunction:    0.000001000000000
 Iteration     1 Dimension     3 NMult     0 NNew      3
 CISAX will form     3 AO SS matrices at one time.
 Iteration     2 Dimension     6 NMult     3 NNew      3
 Iteration     3 Dimension     9 NMult     6 NNew      3
 Iteration     4 Dimension    11 NMult     9 NNew      2
 Iteration     5 Dimension    13 NMult    11 NNew      2
 Iteration     6 Dimension    14 NMult    13 NNew      1
 Iteration     7 Dimension    15 NMult    14 NNew      1
 ***********************************************************************
 Excited states from <AA,BB:AA,BB> singles matrix:
 ***********************************************************************
 
 Ground to excited state transition densities written to RWF  633
 Ground to excited state transition electric dipole moments (Au):
       state          X           Y           Z        Dip. S.      Osc.
         1        -0.0000      0.0000     -0.0000      0.0000      0.0000
         2         0.2218     -0.0000      0.0000      0.0492      0.0097
         3        -0.0000     -0.0000      1.0497      1.1019      0.2799
 Ground to excited state transition velocity dipole moments (Au):
       state          X           Y           Z        Dip. S.      Osc.
         1         0.0000      0.0000     -0.0000      0.0000      0.0000
         2        -0.1484     -0.0000      0.0000      0.0220      0.0498
         3         0.0000      0.0000      0.1120      0.0125      0.0219
 Ground to excited state transition magnetic dipole moments (Au):
       state          X           Y           Z
         1         0.0000      0.0000      1.0936
         2        -0.0000     -1.6508      0.0000
         3         0.0000     -0.0000     -0.0000
 Ground to excited state transition velocity quadrupole moments (Au):
       state          XX          YY          ZZ          XY          XZ          YZ
         1        -0.0000      0.0000      0.0000      0.0228      0.0000     -0.0000
         2         0.0000     -0.0000     -0.0000      0.0000     -0.0429      0.0000
         3         0.0744      0.0841      0.2128      0.0000     -0.0000     -0.0000
 <0|del|b> * <b|rxdel|0> + <0|del|b> * <b|delr+rdel|0>
 Rotatory Strengths (R) in cgs (10**-40 erg-esu-cm/Gauss)
       state          XX          YY          ZZ    R(velocity)    E-M Angle
         1        -0.0000     -0.0000      0.0000     -0.0000       90.00
         2         0.0000     -0.0000      0.0000      0.0000       90.00
         3         0.0000     -0.0000     -0.0000     -0.0000       90.00
 1/2[<0|r|b>*<b|rxdel|0> + (<0|rxdel|b>*<b|r|0>)*]
 Rotatory Strengths (R) in cgs (10**-40 erg-esu-cm/Gauss)
       state          XX          YY          ZZ     R(length)
         1         0.0000     -0.0000      0.0000      0.0000
         2         0.0000     -0.0000     -0.0000     -0.0000
         3         0.0000     -0.0000      0.0000      0.0000
  1/2[<0|del|b>*<b|r|0> + (<0|r|b>*<b|del|0>)*] (Au)
       state          X           Y           Z        Dip. S.   Osc.(frdel)
         1        -0.0000      0.0000      0.0000     -0.0000     -0.0000
         2        -0.0329      0.0000      0.0000      0.0329      0.0219
         3        -0.0000     -0.0000      0.1176     -0.1176     -0.0784

 Excitation energies and oscillator strengths:
 
 Excited State   1:      Singlet-A2     3.4452 eV  359.87 nm  f=0.0000  <S**2>=0.000
       5 ->  9         0.11869
       8 ->  9         0.69707
 This state for optimization and/or second-order correction.
 Total Energy, E(CIS/TDA) =  -112.213522180    
 Copying the excited state density for this state as the 1-particle RhoCI density.
 
 Excited State   2:      Singlet-B1     8.0232 eV  154.53 nm  f=0.0097  <S**2>=0.000
       6 ->  9         0.70408
 
 Excited State   3:      Singlet-A1    10.3693 eV  119.57 nm  f=0.2799  <S**2>=0.000
       6 -> 10         0.10604
       6 -> 12         0.22819
       7 ->  9         0.65006
 SavETr:  write IOETrn=   770 NScale= 10 NData=  16 NLR=1 NState=    3 LETran=      64.
          IDoAtm=1111
          Differentiating once with respect to electric field.
                with respect to dipole field.
          Differentiating once with respect to nuclear coordinates.
 Keep R1 ints in memory in symmetry-blocked form, NReq=808418.
          There are     1 degrees of freedom in the 1st order CPHF.  IDoFFX=0 NUNeed=     1.
 LinEq1:  Iter=  0 NonCon=     1 RMS=1.17D-01 Max=5.38D-01 NDo=     1
 AX will form     1 AO Fock derivatives at one time.
 LinEq1:  Iter=  1 NonCon=     1 RMS=1.62D-02 Max=5.42D-02 NDo=     1
 LinEq1:  Iter=  2 NonCon=     1 RMS=2.58D-03 Max=8.39D-03 NDo=     1
 LinEq1:  Iter=  3 NonCon=     1 RMS=2.60D-04 Max=8.35D-04 NDo=     1
 LinEq1:  Iter=  4 NonCon=     1 RMS=2.05D-05 Max=6.61D-05 NDo=     1
 LinEq1:  Iter=  5 NonCon=     1 RMS=1.05D-06 Max=3.58D-06 NDo=     1
 LinEq1:  Iter=  6 NonCon=     1 RMS=6.61D-08 Max=2.47D-07 NDo=     1
 LinEq1:  Iter=  7 NonCon=     1 RMS=2.67D-09 Max=8.85D-09 NDo=     1
 LinEq1:  Iter=  8 NonCon=     1 RMS=1.73D-10 Max=6.28D-10 NDo=     1
 LinEq1:  Iter=  9 NonCon=     0 RMS=5.49D-12 Max=1.68D-11 NDo=     1
 Linear equations converged to 1.000D-10 1.000D-09 after     9 iterations.
 End of Minotr F.D. properties file   721 does not exist.
 End of Minotr F.D. properties file   722 does not exist.
 End of Minotr F.D. properties file   788 does not exist.
 Calling FoFJK, ICntrl=  10005127 FMM=F ISym2X=1 I1Cent= 0 IOpClX= 0 NMat=1 NMatS=1 NMatT=0.
 ***** Axes restored to original set *****
 -------------------------------------------------------------------
 Center     Atomic                   Forces (Hartrees/Bohr)
 Number     Number              X              Y              Z
 -------------------------------------------------------------------
      1        6          -0.002449572   -0.004244567   -0.000000000
      2        1           0.007077604    0.002689941    0.000000000
      3        1          -0.001211964    0.007473915    0.000000000
      4        8          -0.003416067   -0.005919289   -0.000000000
 -------------------------------------------------------------------
 Cartesian Forces:  Max     0.007473915 RMS     0.003930445

 GradGradGradGradGradGradGradGradGradGradGradGradGradGradGradGradGradGrad
 Berny optimization.
 Using GEDIIS/GDIIS optimizer.
 FormGI is forming the generalized inverse of G from B-inverse, IUseBI=4.
 Internal  Forces:  Max     0.010184406 RMS     0.005404626
 Search for a local minimum.
 Step number   2 out of a maximum of   20
 All quantities printed in internal units (Hartrees-Bohrs-Radians)
 Mixed Optimization -- RFO/linear search
 Update second derivatives using D2CorX and points    1    2
 DE= -1.42D-02 DEPred=-1.60D-02 R= 8.83D-01
 TightC=F SS=  1.41D+00  RLast= 1.91D-01 DXNew= 5.0454D-01 5.7361D-01
 Trust test= 8.83D-01 RLast= 1.91D-01 DXMaxT set to 5.05D-01
 The second derivative matrix:
                          R1        R2        R3        A1        A2
           R1           0.33762
           R2           0.00206   0.33762
           R3          -0.01501  -0.01501   1.05430
           A1           0.00426   0.00426  -0.04746   0.15775
           A2          -0.00213  -0.00213   0.02373   0.00113   0.15944
           A3          -0.00213  -0.00213   0.02373   0.00113  -0.00056
           D1          -0.00000  -0.00000   0.00000  -0.00000   0.00000
                          A3        D1
           A3           0.15944
           D1           0.00000   0.04118
 ITU=  1  0
 Use linear search instead of GDIIS.
     Eigenvalues ---    0.04118   0.15268   0.16000   0.33556   0.33921
     Eigenvalues ---    1.05870
 RFO step:  Lambda=-9.56635892D-04 EMin= 4.11848468D-02
 Quartic linear search produced a step of -0.01850.
 Iteration  1 RMS(Cart)=  0.02791690 RMS(Int)=  0.00053562
 Iteration  2 RMS(Cart)=  0.00049114 RMS(Int)=  0.00000002
 Iteration  3 RMS(Cart)=  0.00000002 RMS(Int)=  0.00000000
 ClnCor:  largest displacement from symmetrization is 3.62D-09 for atom     1.
 Variable       Old X    -DE/DX   Delta X   Delta X   Delta X     New X
                                 (Linear)    (Quad)   (Total)
    R1        2.03709   0.00104   0.00081   0.00136   0.00217   2.03926
    R2        2.03709   0.00104   0.00081   0.00136   0.00217   2.03926
    R3        2.46859  -0.00683  -0.00314   0.00045  -0.00269   2.46590
    A1        2.04985   0.01018  -0.00095   0.06363   0.06268   2.11253
    A2        2.11667  -0.00509   0.00047  -0.03182  -0.03134   2.08533
    A3        2.11667  -0.00509   0.00047  -0.03182  -0.03134   2.08533
    D1        3.14159   0.00000   0.00000   0.00000   0.00000   3.14159
         Item               Value     Threshold  Converged?
 Maximum Force            0.010184     0.000450     NO 
 RMS     Force            0.005405     0.000300     NO 
 Maximum Displacement     0.043436     0.001800     NO 
 RMS     Displacement     0.027785     0.001200     NO 
 Predicted change in Energy=-4.996360D-04
 GradGradGradGradGradGradGradGradGradGradGradGradGradGradGradGradGradGrad

                          Input orientation:                          
 ---------------------------------------------------------------------
 Center     Atomic      Atomic             Coordinates (Angstroms)
 Number     Number       Type             X           Y           Z
 ---------------------------------------------------------------------
      1          6           0       -0.529061   -0.415983    0.000000
      2          1           0        0.019125   -1.345507    0.000000
      3          1           0       -1.608149   -0.406395   -0.000000
      4          8           0        0.123182    0.714209   -0.000000
 ---------------------------------------------------------------------
                    Distance matrix (angstroms):
                    1          2          3          4
     1  C    0.000000
     2  H    1.079130   0.000000
     3  H    1.079130   1.878817   0.000000
     4  O    1.304896   2.062343   2.062343   0.000000
 Stoichiometry    CH2O
 Framework group  C2V[C2(CO),SGV(H2)]
 Deg. of freedom     3
 Full point group                 C2V     NOp   4
 Largest Abelian subgroup         C2V     NOp   4
 Largest concise Abelian subgroup C2      NOp   2
                         Standard orientation:                         
 ---------------------------------------------------------------------
 Center     Atomic      Atomic             Coordinates (Angstroms)
 Number     Number       Type             X           Y           Z
 ---------------------------------------------------------------------
      1          6           0        0.000000   -0.000000   -0.586065
      2          1           0       -0.000000   -0.939408   -1.117134
      3          1           0        0.000000    0.939408   -1.117134
      4          8           0       -0.000000    0.000000    0.718832
 ---------------------------------------------------------------------
 Rotational constants (GHZ):         284.1143289          34.2889351          30.5963502
 Standard basis: STO-3G (5D, 7F)
 There are     7 symmetry adapted cartesian basis functions of A1  symmetry.
 There are     0 symmetry adapted cartesian basis functions of A2  symmetry.
 There are     2 symmetry adapted cartesian basis functions of B1  symmetry.
 There are     3 symmetry adapted cartesian basis functions of B2  symmetry.
 There are     7 symmetry adapted basis functions of A1  symmetry.
 There are     0 symmetry adapted basis functions of A2  symmetry.
 There are     2 symmetry adapted basis functions of B1  symmetry.
 There are     3 symmetry adapted basis functions of B2  symmetry.
    12 basis functions,    36 primitive gaussians,    12 cartesian basis functions
     8 alpha electrons        8 beta electrons
       nuclear repulsion energy        29.7371208408 Hartrees.
 NAtoms=    4 NActive=    4 NUniq=    3 SFac= 1.78D+00 NAtFMM=   60 NAOKFM=F Big=F
 Integral buffers will be    131072 words long.
 Raffenetti 1 integral format.
 Two-electron integral symmetry is turned on.
 One-electron integrals computed using PRISM.
 NBasis=    12 RedAO= T EigKep=  2.59D-01  NBF=     7     0     2     3
 NBsUse=    12 1.00D-06 EigRej= -1.00D+00 NBFU=     7     0     2     3
 Initial guess from the checkpoint file:  "/rds/general/user/rk820/home/dibs-g16/fc_ht/formaldehyde/formaldehyde_es_STO-3G_opt.chk"
 B after Tr=     0.000000   -0.000000    0.000000
         Rot=    1.000000   -0.000000    0.000000    0.000000 Ang=   0.00 deg.
 Initial guess orbital symmetries:
       Occupied  (A1) (A1) (A1) (A1) (B2) (A1) (B1) (B2)
       Virtual   (B1) (A1) (B2) (A1)
 ExpMin= 1.69D-01 ExpMax= 1.31D+02 ExpMxC= 1.31D+02 IAcc=3 IRadAn=         5 AccDes= 0.00D+00
 Harris functional with IExCor=  205 and IRadAn=       5 diagonalized for initial guess.
 HarFok:  IExCor=  205 AccDes= 0.00D+00 IRadAn=         5 IDoV= 1 UseB2=F ITyADJ=14
 ICtDFT=  3500011 ScaDFX=  1.000000  1.000000  1.000000  1.000000
 FoFCou: FMM=F IPFlag=           0 FMFlag=      100000 FMFlg1=           0
         NFxFlg=           0 DoJE=T BraDBF=F KetDBF=T FulRan=T
         wScrn=  0.000000 ICntrl=       500 IOpCl=  0 I1Cent=   200000004 NGrid=           0
         NMat0=    1 NMatS0=      1 NMatT0=    0 NMatD0=    1 NMtDS0=    0 NMtDT0=    0
 Petite list used in FoFCou.
 Keep R1 ints in memory in symmetry-blocked form, NReq=807829.
 Requested convergence on RMS density matrix=1.00D-08 within 128 cycles.
 Requested convergence on MAX density matrix=1.00D-06.
 Requested convergence on             energy=1.00D-06.
 No special actions if energy rises.
 SCF Done:  E(RHF) =  -112.339971049     A.U. after    8 cycles
            NFock=  8  Conv=0.50D-08     -V/T= 2.0093
 ExpMin= 1.69D-01 ExpMax= 1.31D+02 ExpMxC= 1.31D+02 IAcc=3 IRadAn=         5 AccDes= 0.00D+00
 HarFok:  IExCor=  205 AccDes= 0.00D+00 IRadAn=         5 IDoV=-2 UseB2=F ITyADJ=14
 ICtDFT= 12500011 ScaDFX=  1.000000  1.000000  1.000000  1.000000
 Range of M.O.s used for correlation:     3    12
 NBasis=    12 NAE=     8 NBE=     8 NFC=     2 NFV=     0
 NROrb=     10 NOA=     6 NOB=     6 NVA=     4 NVB=     4
 Keep R1, R2, and R3 ints in memory in symmetry-blocked form, NReq=808268.
 Orbital symmetries:
       Occupied  (A1) (A1) (A1) (A1) (B2) (A1) (B1) (B2)
       Virtual   (B1) (A1) (B2) (A1)
 Generating guess from densities on rwf.
 Convergence on wavefunction:    0.000001000000000
 Iteration     1 Dimension     3 NMult     0 NNew      3
 CISAX will form     3 AO SS matrices at one time.
 Iteration     2 Dimension     6 NMult     3 NNew      3
 Iteration     3 Dimension     9 NMult     6 NNew      3
 Iteration     4 Dimension    11 NMult     9 NNew      2
 Iteration     5 Dimension    13 NMult    11 NNew      2
 Iteration     6 Dimension    14 NMult    13 NNew      1
 ***********************************************************************
 Excited states from <AA,BB:AA,BB> singles matrix:
 ***********************************************************************
 
 Ground to excited state transition densities written to RWF  633
 Ground to excited state transition electric dipole moments (Au):
       state          X           Y           Z        Dip. S.      Osc.
         1         0.0000      0.0000     -0.0000      0.0000      0.0000
         2         0.2129     -0.0000      0.0000      0.0453      0.0088
         3        -0.0000     -0.0000      1.0574      1.1180      0.2852
 Ground to excited state transition velocity dipole moments (Au):
       state          X           Y           Z        Dip. S.      Osc.
         1        -0.0000      0.0000     -0.0000      0.0000      0.0000
         2        -0.1448     -0.0000      0.0000      0.0210      0.0478
         3         0.0000     -0.0000      0.1100      0.0121      0.0211
 Ground to excited state transition magnetic dipole moments (Au):
       state          X           Y           Z
         1         0.0000      0.0000      1.0974
         2        -0.0000     -1.6535     -0.0000
         3        -0.0000     -0.0000     -0.0000
 Ground to excited state transition velocity quadrupole moments (Au):
       state          XX          YY          ZZ          XY          XZ          YZ
         1        -0.0000      0.0000      0.0000      0.0226      0.0000     -0.0000
         2         0.0000     -0.0000     -0.0000      0.0000     -0.0447      0.0000
         3         0.0754      0.0962      0.2063      0.0000     -0.0000      0.0000
 <0|del|b> * <b|rxdel|0> + <0|del|b> * <b|delr+rdel|0>
 Rotatory Strengths (R) in cgs (10**-40 erg-esu-cm/Gauss)
       state          XX          YY          ZZ    R(velocity)    E-M Angle
         1        -0.0000     -0.0000     -0.0000     -0.0000       90.00
         2         0.0000     -0.0000      0.0000      0.0000       90.00
         3         0.0000     -0.0000      0.0000     -0.0000       90.00
 1/2[<0|r|b>*<b|rxdel|0> + (<0|rxdel|b>*<b|r|0>)*]
 Rotatory Strengths (R) in cgs (10**-40 erg-esu-cm/Gauss)
       state          XX          YY          ZZ     R(length)
         1        -0.0000     -0.0000      0.0000      0.0000
         2         0.0000     -0.0000      0.0000     -0.0000
         3        -0.0000     -0.0000      0.0000      0.0000
  1/2[<0|del|b>*<b|r|0> + (<0|r|b>*<b|del|0>)*] (Au)
       state          X           Y           Z        Dip. S.   Osc.(frdel)
         1        -0.0000      0.0000      0.0000      0.0000      0.0000
         2        -0.0308      0.0000      0.0000      0.0308      0.0206
         3        -0.0000      0.0000      0.1164     -0.1164     -0.0776

 Excitation energies and oscillator strengths:
 
 Excited State   1:      Singlet-A2     3.4250 eV  361.99 nm  f=0.0000  <S**2>=0.000
       5 ->  9         0.11609
       8 ->  9         0.69751
 This state for optimization and/or second-order correction.
 Total Energy, E(CIS/TDA) =  -112.214103477    
 Copying the excited state density for this state as the 1-particle RhoCI density.
 
 Excited State   2:      Singlet-B1     7.9600 eV  155.76 nm  f=0.0088  <S**2>=0.000
       6 ->  9         0.70397
 
 Excited State   3:      Singlet-A1    10.4118 eV  119.08 nm  f=0.2852  <S**2>=0.000
       6 -> 12         0.23990
       7 ->  9         0.65063
 SavETr:  write IOETrn=   770 NScale= 10 NData=  16 NLR=1 NState=    3 LETran=      64.
          IDoAtm=1111
          Differentiating once with respect to electric field.
                with respect to dipole field.
          Differentiating once with respect to nuclear coordinates.
 Keep R1 ints in memory in symmetry-blocked form, NReq=808418.
          There are     1 degrees of freedom in the 1st order CPHF.  IDoFFX=0 NUNeed=     1.
 LinEq1:  Iter=  0 NonCon=     1 RMS=1.16D-01 Max=5.36D-01 NDo=     1
 AX will form     1 AO Fock derivatives at one time.
 LinEq1:  Iter=  1 NonCon=     1 RMS=1.59D-02 Max=5.59D-02 NDo=     1
 LinEq1:  Iter=  2 NonCon=     1 RMS=2.58D-03 Max=8.46D-03 NDo=     1
 LinEq1:  Iter=  3 NonCon=     1 RMS=2.44D-04 Max=8.10D-04 NDo=     1
 LinEq1:  Iter=  4 NonCon=     1 RMS=1.83D-05 Max=5.89D-05 NDo=     1
 LinEq1:  Iter=  5 NonCon=     1 RMS=9.59D-07 Max=3.47D-06 NDo=     1
 LinEq1:  Iter=  6 NonCon=     1 RMS=6.09D-08 Max=2.45D-07 NDo=     1
 LinEq1:  Iter=  7 NonCon=     1 RMS=2.76D-09 Max=1.08D-08 NDo=     1
 LinEq1:  Iter=  8 NonCon=     1 RMS=1.45D-10 Max=5.94D-10 NDo=     1
 LinEq1:  Iter=  9 NonCon=     0 RMS=4.62D-12 Max=1.65D-11 NDo=     1
 Linear equations converged to 1.000D-10 1.000D-09 after     9 iterations.
 End of Minotr F.D. properties file   721 does not exist.
 End of Minotr F.D. properties file   722 does not exist.
 End of Minotr F.D. properties file   788 does not exist.
 Calling FoFJK, ICntrl=  10005127 FMM=F ISym2X=1 I1Cent= 0 IOpClX= 0 NMat=1 NMatS=1 NMatT=0.
 ***** Axes restored to original set *****
 -------------------------------------------------------------------
 Center     Atomic                   Forces (Hartrees/Bohr)
 Number     Number              X              Y              Z
 -------------------------------------------------------------------
      1        6          -0.000852111   -0.001476520   -0.000000000
      2        1           0.001061347    0.001039309    0.000000000
      3        1           0.000368871    0.001438942    0.000000000
      4        8          -0.000578107   -0.001001731   -0.000000000
 -------------------------------------------------------------------
 Cartesian Forces:  Max     0.001476520 RMS     0.000849368

 GradGradGradGradGradGradGradGradGradGradGradGradGradGradGradGradGradGrad
 Berny optimization.
 Using GEDIIS/GDIIS optimizer.
 FormGI is forming the generalized inverse of G from B-inverse, IUseBI=4.
 Internal  Forces:  Max     0.001960631 RMS     0.001025208
 Search for a local minimum.
 Step number   3 out of a maximum of   20
 All quantities printed in internal units (Hartrees-Bohrs-Radians)
 Mixed Optimization -- RFO/linear search
 Update second derivatives using D2CorX and points    1    2    3
 DE= -5.81D-04 DEPred=-5.00D-04 R= 1.16D+00
 TightC=F SS=  1.41D+00  RLast= 7.69D-02 DXNew= 8.4853D-01 2.3064D-01
 Trust test= 1.16D+00 RLast= 7.69D-02 DXMaxT set to 5.05D-01
 The second derivative matrix:
                          R1        R2        R3        A1        A2
           R1           0.33820
           R2           0.00264   0.33820
           R3          -0.01385  -0.01385   1.04314
           A1           0.00661   0.00661  -0.02989   0.13964
           A2          -0.00331  -0.00331   0.01495   0.01018   0.15491
           A3          -0.00331  -0.00331   0.01495   0.01018  -0.00509
           D1          -0.00000  -0.00000   0.00000  -0.00000   0.00000
                          A3        D1
           A3           0.15491
           D1           0.00000   0.04118
 ITU=  1  1  0
 Use linear search instead of GDIIS.
     Eigenvalues ---    0.04118   0.12746   0.16000   0.33556   0.34080
     Eigenvalues ---    1.04517
 RFO step:  Lambda=-2.85268969D-06 EMin= 4.11848468D-02
 Quartic linear search produced a step of  0.23821.
 Iteration  1 RMS(Cart)=  0.00654101 RMS(Int)=  0.00003296
 Iteration  2 RMS(Cart)=  0.00003189 RMS(Int)=  0.00000000
 Iteration  3 RMS(Cart)=  0.00000000 RMS(Int)=  0.00000000
 ClnCor:  largest displacement from symmetrization is 4.54D-09 for atom     1.
 Variable       Old X    -DE/DX   Delta X   Delta X   Delta X     New X
                                 (Linear)    (Quad)   (Total)
    R1        2.03926  -0.00036   0.00052  -0.00203  -0.00151   2.03775
    R2        2.03926  -0.00036   0.00052  -0.00203  -0.00151   2.03775
    R3        2.46590  -0.00116  -0.00064   0.00016  -0.00049   2.46541
    A1        2.11253   0.00196   0.01493   0.00053   0.01546   2.12799
    A2        2.08533  -0.00098  -0.00747  -0.00027  -0.00773   2.07760
    A3        2.08533  -0.00098  -0.00747  -0.00027  -0.00773   2.07760
    D1        3.14159   0.00000   0.00000   0.00000   0.00000   3.14159
         Item               Value     Threshold  Converged?
 Maximum Force            0.001961     0.000450     NO 
 RMS     Force            0.001025     0.000300     NO 
 Maximum Displacement     0.009572     0.001800     NO 
 RMS     Displacement     0.006532     0.001200     NO 
 Predicted change in Energy=-2.314437D-05
 GradGradGradGradGradGradGradGradGradGradGradGradGradGradGradGradGradGrad

                          Input orientation:                          
 ---------------------------------------------------------------------
 Center     Atomic      Atomic             Coordinates (Angstroms)
 Number     Number       Type             X           Y           Z
 ---------------------------------------------------------------------
      1          6           0       -0.530945   -0.419248    0.000000
      2          1           0        0.024000   -1.343820    0.000000
      3          1           0       -1.609127   -0.401330   -0.000000
      4          8           0        0.121169    0.710722   -0.000000
 ---------------------------------------------------------------------
                    Distance matrix (angstroms):
                    1          2          3          4
     1  C    0.000000
     2  H    1.078331   0.000000
     3  H    1.078331   1.885575   0.000000
     4  O    1.304639   2.056838   2.056838   0.000000
 Stoichiometry    CH2O
 Framework group  C2V[C2(CO),SGV(H2)]
 Deg. of freedom     3
 Full point group                 C2V     NOp   4
 Largest Abelian subgroup         C2V     NOp   4
 Largest concise Abelian subgroup C2      NOp   2
                         Standard orientation:                         
 ---------------------------------------------------------------------
 Center     Atomic      Atomic             Coordinates (Angstroms)
 Number     Number       Type             X           Y           Z
 ---------------------------------------------------------------------
      1          6           0        0.000000   -0.000000   -0.586894
      2          1           0       -0.000000   -0.942788   -1.110296
      3          1           0        0.000000    0.942788   -1.110296
      4          8           0       -0.000000    0.000000    0.717745
 ---------------------------------------------------------------------
 Rotational constants (GHZ):         282.0813205          34.3869159          30.6504904
 Standard basis: STO-3G (5D, 7F)
 There are     7 symmetry adapted cartesian basis functions of A1  symmetry.
 There are     0 symmetry adapted cartesian basis functions of A2  symmetry.
 There are     2 symmetry adapted cartesian basis functions of B1  symmetry.
 There are     3 symmetry adapted cartesian basis functions of B2  symmetry.
 There are     7 symmetry adapted basis functions of A1  symmetry.
 There are     0 symmetry adapted basis functions of A2  symmetry.
 There are     2 symmetry adapted basis functions of B1  symmetry.
 There are     3 symmetry adapted basis functions of B2  symmetry.
    12 basis functions,    36 primitive gaussians,    12 cartesian basis functions
     8 alpha electrons        8 beta electrons
       nuclear repulsion energy        29.7552945678 Hartrees.
 NAtoms=    4 NActive=    4 NUniq=    3 SFac= 1.78D+00 NAtFMM=   60 NAOKFM=F Big=F
 Integral buffers will be    131072 words long.
 Raffenetti 1 integral format.
 Two-electron integral symmetry is turned on.
 One-electron integrals computed using PRISM.
 NBasis=    12 RedAO= T EigKep=  2.58D-01  NBF=     7     0     2     3
 NBsUse=    12 1.00D-06 EigRej= -1.00D+00 NBFU=     7     0     2     3
 Initial guess from the checkpoint file:  "/rds/general/user/rk820/home/dibs-g16/fc_ht/formaldehyde/formaldehyde_es_STO-3G_opt.chk"
 B after Tr=     0.000000   -0.000000    0.000000
         Rot=    1.000000    0.000000    0.000000   -0.000000 Ang=   0.00 deg.
 Initial guess orbital symmetries:
       Occupied  (A1) (A1) (A1) (A1) (B2) (A1) (B1) (B2)
       Virtual   (B1) (A1) (B2) (A1)
 Keep R1 ints in memory in symmetry-blocked form, NReq=807829.
 Requested convergence on RMS density matrix=1.00D-08 within 128 cycles.
 Requested convergence on MAX density matrix=1.00D-06.
 Requested convergence on             energy=1.00D-06.
 No special actions if energy rises.
 SCF Done:  E(RHF) =  -112.339703855     A.U. after    8 cycles
            NFock=  8  Conv=0.21D-08     -V/T= 2.0093
 ExpMin= 1.69D-01 ExpMax= 1.31D+02 ExpMxC= 1.31D+02 IAcc=3 IRadAn=         5 AccDes= 0.00D+00
 HarFok:  IExCor=  205 AccDes= 0.00D+00 IRadAn=         5 IDoV=-2 UseB2=F ITyADJ=14
 ICtDFT= 12500011 ScaDFX=  1.000000  1.000000  1.000000  1.000000
 Range of M.O.s used for correlation:     3    12
 NBasis=    12 NAE=     8 NBE=     8 NFC=     2 NFV=     0
 NROrb=     10 NOA=     6 NOB=     6 NVA=     4 NVB=     4
 Keep R1, R2, and R3 ints in memory in symmetry-blocked form, NReq=808268.
 Orbital symmetries:
       Occupied  (A1) (A1) (A1) (A1) (B2) (A1) (B1) (B2)
       Virtual   (B1) (A1) (B2) (A1)
 Generating guess from densities on rwf.
 Convergence on wavefunction:    0.000001000000000
 Iteration     1 Dimension     3 NMult     0 NNew      3
 CISAX will form     3 AO SS matrices at one time.
 Iteration     2 Dimension     6 NMult     3 NNew      3
 Iteration     3 Dimension     9 NMult     6 NNew      3
 Iteration     4 Dimension    11 NMult     9 NNew      2
 Iteration     5 Dimension    13 NMult    11 NNew      2
 Iteration     6 Dimension    14 NMult    13 NNew      1
 ***********************************************************************
 Excited states from <AA,BB:AA,BB> singles matrix:
 ***********************************************************************
 
 Ground to excited state transition densities written to RWF  633
 Ground to excited state transition electric dipole moments (Au):
       state          X           Y           Z        Dip. S.      Osc.
         1         0.0000      0.0000     -0.0000      0.0000      0.0000
         2         0.2108     -0.0000      0.0000      0.0445      0.0087
         3        -0.0000     -0.0000      1.0593      1.1222      0.2865
 Ground to excited state transition velocity dipole moments (Au):
       state          X           Y           Z        Dip. S.      Osc.
         1        -0.0000      0.0000     -0.0000      0.0000      0.0000
         2        -0.1440     -0.0000      0.0000      0.0207      0.0474
         3         0.0000      0.0000      0.1097      0.0120      0.0209
 Ground to excited state transition magnetic dipole moments (Au):
       state          X           Y           Z
         1         0.0000      0.0000      1.0987
         2        -0.0000     -1.6542     -0.0000
         3         0.0000     -0.0000     -0.0000
 Ground to excited state transition velocity quadrupole moments (Au):
       state          XX          YY          ZZ          XY          XZ          YZ
         1        -0.0000      0.0000      0.0000      0.0226      0.0000     -0.0000
         2         0.0000     -0.0000     -0.0000      0.0000     -0.0451      0.0000
         3         0.0756      0.0991      0.2046      0.0000     -0.0000      0.0000
 <0|del|b> * <b|rxdel|0> + <0|del|b> * <b|delr+rdel|0>
 Rotatory Strengths (R) in cgs (10**-40 erg-esu-cm/Gauss)
       state          XX          YY          ZZ    R(velocity)    E-M Angle
         1        -0.0000     -0.0000     -0.0000     -0.0000       90.00
         2         0.0000     -0.0000      0.0000      0.0000       90.00
         3         0.0000     -0.0000     -0.0000     -0.0000       90.00
 1/2[<0|r|b>*<b|rxdel|0> + (<0|rxdel|b>*<b|r|0>)*]
 Rotatory Strengths (R) in cgs (10**-40 erg-esu-cm/Gauss)
       state          XX          YY          ZZ     R(length)
         1        -0.0000     -0.0000      0.0000      0.0000
         2         0.0000     -0.0000      0.0000     -0.0000
         3         0.0000     -0.0000      0.0000      0.0000
  1/2[<0|del|b>*<b|r|0> + (<0|r|b>*<b|del|0>)*] (Au)
       state          X           Y           Z        Dip. S.   Osc.(frdel)
         1        -0.0000      0.0000      0.0000      0.0000      0.0000
         2        -0.0304      0.0000      0.0000      0.0304      0.0202
         3        -0.0000     -0.0000      0.1162     -0.1162     -0.0775

 Excitation energies and oscillator strengths:
 
 Excited State   1:      Singlet-A2     3.4171 eV  362.83 nm  f=0.0000  <S**2>=0.000
       5 ->  9         0.11521
       8 ->  9         0.69766
 This state for optimization and/or second-order correction.
 Total Energy, E(CIS/TDA) =  -112.214126372    
 Copying the excited state density for this state as the 1-particle RhoCI density.
 
 Excited State   2:      Singlet-B1     7.9423 eV  156.11 nm  f=0.0087  <S**2>=0.000
       6 ->  9         0.70395
 
 Excited State   3:      Singlet-A1    10.4208 eV  118.98 nm  f=0.2865  <S**2>=0.000
       6 -> 12         0.24220
       7 ->  9         0.65076
 SavETr:  write IOETrn=   770 NScale= 10 NData=  16 NLR=1 NState=    3 LETran=      64.
          IDoAtm=1111
          Differentiating once with respect to electric field.
                with respect to dipole field.
          Differentiating once with respect to nuclear coordinates.
 Keep R1 ints in memory in symmetry-blocked form, NReq=808418.
          There are     1 degrees of freedom in the 1st order CPHF.  IDoFFX=0 NUNeed=     1.
 LinEq1:  Iter=  0 NonCon=     1 RMS=1.16D-01 Max=5.36D-01 NDo=     1
 AX will form     1 AO Fock derivatives at one time.
 LinEq1:  Iter=  1 NonCon=     1 RMS=1.58D-02 Max=5.61D-02 NDo=     1
 LinEq1:  Iter=  2 NonCon=     1 RMS=2.58D-03 Max=8.49D-03 NDo=     1
 LinEq1:  Iter=  3 NonCon=     1 RMS=2.39D-04 Max=8.01D-04 NDo=     1
 LinEq1:  Iter=  4 NonCon=     1 RMS=1.75D-05 Max=5.66D-05 NDo=     1
 LinEq1:  Iter=  5 NonCon=     1 RMS=9.30D-07 Max=3.39D-06 NDo=     1
 LinEq1:  Iter=  6 NonCon=     1 RMS=5.91D-08 Max=2.41D-07 NDo=     1
 LinEq1:  Iter=  7 NonCon=     1 RMS=2.79D-09 Max=1.12D-08 NDo=     1
 LinEq1:  Iter=  8 NonCon=     1 RMS=1.38D-10 Max=5.79D-10 NDo=     1
 LinEq1:  Iter=  9 NonCon=     0 RMS=4.46D-12 Max=1.65D-11 NDo=     1
 Linear equations converged to 1.000D-10 1.000D-09 after     9 iterations.
 End of Minotr F.D. properties file   721 does not exist.
 End of Minotr F.D. properties file   722 does not exist.
 End of Minotr F.D. properties file   788 does not exist.
 Calling FoFJK, ICntrl=  10005127 FMM=F ISym2X=1 I1Cent= 0 IOpClX= 0 NMat=1 NMatS=1 NMatT=0.
 ***** Axes restored to original set *****
 -------------------------------------------------------------------
 Center     Atomic                   Forces (Hartrees/Bohr)
 Number     Number              X              Y              Z
 -------------------------------------------------------------------
      1        6           0.000078841    0.000136614   -0.000000000
      2        1           0.000145994   -0.000262266    0.000000000
      3        1          -0.000300125   -0.000004807    0.000000000
      4        8           0.000075289    0.000130459   -0.000000000
 -------------------------------------------------------------------
 Cartesian Forces:  Max     0.000300125 RMS     0.000137769

 GradGradGradGradGradGradGradGradGradGradGradGradGradGradGradGradGradGrad
 Berny optimization.
 Using GEDIIS/GDIIS optimizer.
 FormGI is forming the generalized inverse of G from B-inverse, IUseBI=4.
 Internal  Forces:  Max     0.000300003 RMS     0.000170276
 Search for a local minimum.
 Step number   4 out of a maximum of   20
 All quantities printed in internal units (Hartrees-Bohrs-Radians)
 Mixed Optimization -- En-DIIS/RFO-DIIS
 Update second derivatives using D2CorX and points    1    2    3    4
 DE= -2.29D-05 DEPred=-2.31D-05 R= 9.89D-01
 TightC=F SS=  1.41D+00  RLast= 1.91D-02 DXNew= 8.4853D-01 5.7197D-02
 Trust test= 9.89D-01 RLast= 1.91D-02 DXMaxT set to 5.05D-01
 The second derivative matrix:
                          R1        R2        R3        A1        A2
           R1           0.34362
           R2           0.00806   0.34362
           R3          -0.00749  -0.00749   1.04974
           A1          -0.00554  -0.00554  -0.03536   0.13697
           A2           0.00277   0.00277   0.01768   0.01151   0.15424
           A3           0.00277   0.00277   0.01768   0.01151  -0.00576
           D1           0.00000   0.00000   0.00000  -0.00000   0.00000
                          A3        D1
           A3           0.15424
           D1           0.00000   0.04118
 ITU=  1  1  1  0
 Use linear search instead of GDIIS.
     Eigenvalues ---    0.04118   0.12299   0.16000   0.33556   0.35198
     Eigenvalues ---    1.05191
 RFO step:  Lambda=-5.02916159D-07 EMin= 4.11848468D-02
 Quartic linear search produced a step of -0.02667.
 Iteration  1 RMS(Cart)=  0.00044500 RMS(Int)=  0.00000000
 Iteration  2 RMS(Cart)=  0.00000000 RMS(Int)=  0.00000000
 ClnCor:  largest displacement from symmetrization is 1.07D-14 for atom     1.
 Variable       Old X    -DE/DX   Delta X   Delta X   Delta X     New X
                                 (Linear)    (Quad)   (Total)
    R1        2.03775   0.00030   0.00004   0.00082   0.00086   2.03861
    R2        2.03775   0.00030   0.00004   0.00082   0.00086   2.03861
    R3        2.46541   0.00015   0.00001   0.00014   0.00016   2.46557
    A1        2.12799  -0.00001  -0.00041   0.00043   0.00001   2.12801
    A2        2.07760   0.00001   0.00021  -0.00021  -0.00001   2.07759
    A3        2.07760   0.00001   0.00021  -0.00021  -0.00001   2.07759
    D1        3.14159   0.00000   0.00000   0.00000   0.00000   3.14159
         Item               Value     Threshold  Converged?
 Maximum Force            0.000300     0.000450     YES
 RMS     Force            0.000170     0.000300     YES
 Maximum Displacement     0.000775     0.001800     YES
 RMS     Displacement     0.000445     0.001200     YES
 Predicted change in Energy=-2.686559D-07
 Optimization completed.
    -- Stationary point found.
                           ----------------------------
                           !   Optimized Parameters   !
                           ! (Angstroms and Degrees)  !
 --------------------------                            --------------------------
 ! Name  Definition              Value          Derivative Info.                !
 --------------------------------------------------------------------------------
 ! R1    R(1,2)                  1.0783         -DE/DX =    0.0003              !
 ! R2    R(1,3)                  1.0783         -DE/DX =    0.0003              !
 ! R3    R(1,4)                  1.3046         -DE/DX =    0.0002              !
 ! A1    A(2,1,3)              121.9251         -DE/DX =    0.0                 !
 ! A2    A(2,1,4)              119.0375         -DE/DX =    0.0                 !
 ! A3    A(3,1,4)              119.0375         -DE/DX =    0.0                 !
 ! D1    D(2,1,4,3)            180.0            -DE/DX =    0.0                 !
 --------------------------------------------------------------------------------
 GradGradGradGradGradGradGradGradGradGradGradGradGradGradGradGradGradGrad

                          Input orientation:                          
 ---------------------------------------------------------------------
 Center     Atomic      Atomic             Coordinates (Angstroms)
 Number     Number       Type             X           Y           Z
 ---------------------------------------------------------------------
      1          6           0       -0.530945   -0.419248    0.000000
      2          1           0        0.024000   -1.343820    0.000000
      3          1           0       -1.609127   -0.401330   -0.000000
      4          8           0        0.121169    0.710722   -0.000000
 ---------------------------------------------------------------------
                    Distance matrix (angstroms):
                    1          2          3          4
     1  C    0.000000
     2  H    1.078331   0.000000
     3  H    1.078331   1.885575   0.000000
     4  O    1.304639   2.056838   2.056838   0.000000
 Stoichiometry    CH2O
 Framework group  C2V[C2(CO),SGV(H2)]
 Deg. of freedom     3
 Full point group                 C2V     NOp   4
 Largest Abelian subgroup         C2V     NOp   4
 Largest concise Abelian subgroup C2      NOp   2
                         Standard orientation:                         
 ---------------------------------------------------------------------
 Center     Atomic      Atomic             Coordinates (Angstroms)
 Number     Number       Type             X           Y           Z
 ---------------------------------------------------------------------
      1          6           0       -0.000000   -0.000000   -0.586894
      2          1           0       -0.000000   -0.942788   -1.110296
      3          1           0        0.000000    0.942788   -1.110296
      4          8           0        0.000000    0.000000    0.717745
 ---------------------------------------------------------------------
 Rotational constants (GHZ):         282.0813205          34.3869159          30.6504904

 **********************************************************************

            Population analysis using the CI Density.

 **********************************************************************

 Orbital symmetries:
       Occupied  (A1) (A1) (A1) (A1) (B2) (A1) (B1) (B2)
       Virtual   (B1) (A1) (B2) (A1)
 The electronic state is 1-A1.
 Alpha  occ. eigenvalues --  -20.29375 -11.10570  -1.28043  -0.81599  -0.62584
 Alpha  occ. eigenvalues --   -0.51691  -0.39541  -0.36046
 Alpha virt. eigenvalues --    0.25322   0.63144   0.77368   0.78797
          Condensed to atoms (all electrons):
               1          2          3          4
     1  C    5.061498   0.380942   0.380942   0.324750
     2  H    0.380942   0.573662  -0.020299  -0.014310
     3  H    0.380942  -0.020299   0.573662  -0.014310
     4  O    0.324750  -0.014310  -0.014310   7.715747
 Mulliken charges:
               1
     1  C   -0.148133
     2  H    0.080004
     3  H    0.080004
     4  O   -0.011875
 Sum of Mulliken charges =  -0.00000
 Mulliken charges with hydrogens summed into heavy atoms:
               1
     1  C    0.011875
     4  O   -0.011875
 Electronic spatial extent (au):  <R**2>=             61.0248
 Charge=             -0.0000 electrons
 Dipole moment (field-independent basis, Debye):
    X=              0.0000    Y=             -0.0000    Z=             -0.4335  Tot=              0.4335
 Quadrupole moment (field-independent basis, Debye-Ang):
   XX=            -11.4181   YY=             -9.4840   ZZ=            -11.0753
   XY=              0.0000   XZ=             -0.0000   YZ=              0.0000
 Traceless Quadrupole moment (field-independent basis, Debye-Ang):
   XX=             -0.7589   YY=              1.1751   ZZ=             -0.4162
   XY=              0.0000   XZ=             -0.0000   YZ=              0.0000
 Octapole moment (field-independent basis, Debye-Ang**2):
  XXX=             -0.0000  YYY=             -0.0000  ZZZ=              3.2007  XYY=              0.0000
  XXY=             -0.0000  XXZ=              1.9138  XZZ=             -0.0000  YZZ=              0.0000
  YYZ=              0.6889  XYZ=             -0.0000
 Hexadecapole moment (field-independent basis, Debye-Ang**3):
 XXXX=             -7.7866 YYYY=            -13.5437 ZZZZ=            -42.0196 XXXY=             -0.0000
 XXXZ=              0.0000 YYYX=             -0.0000 YYYZ=              0.0000 ZZZX=              0.0000
 ZZZY=             -0.0000 XXYY=             -3.8629 XXZZ=             -8.7505 YYZZ=             -7.8164
 XXYZ=             -0.0000 YYXZ=             -0.0000 ZZXY=              0.0000
 N-N= 2.975529456784D+01 E-N=-3.244456582432D+02  KE= 1.113646556646D+02
 Symmetry A1   KE= 1.008728468364D+02
 Symmetry A2   KE= 0.000000000000D+00
 Symmetry B1   KE= 6.050747256124D+00
 Symmetry B2   KE= 4.441061572045D+00
 Unable to Open any file for archive entry.
 1\1\GINC-CX3-7-2\FOpt\RCIS-FC\STO-3G\C1H2O1\RK820\22-Feb-2024\0\\# CIS
 /STO-3G geom=check Density=Current Opt\\HF/STO-3G for formaldehyde, ca
 lculating the first two excited states and optimizing its geometry.\\0
 ,1\C,-0.5309448701,-0.4192478919,0.\H,0.0240004631,-1.3438200129,0.\H,
 -1.6091270723,-0.4013295023,0.\O,0.1211692313,0.7107215701,0.\\Version
 =ES64L-G16RevC.01\State=1-A1\HF=-112.3397039\RMSD=2.141e-09\RMSF=1.378
 e-04\Dipole=0.,0.,-0.1705446\Quadrupole=-0.5642542,0.8736675,-0.309413
 3,0.,0.,0.\PG=C02V [C2(C1O1),SGV(H2)]\\@
 The archive entry for this job was punched.


 ... THIS SEEMS PLAINLY ABSURD; BUT WHOEVER WISHES TO BECOME A 
 PHILOSOPHER MUST LEARN NOT TO BE FRIGHTENED BY ABSURDITIES.

                          -- BERTRAND RUSSELL
 Job cpu time:       0 days  0 hours  0 minutes  3.3 seconds.
 Elapsed time:       0 days  0 hours  0 minutes  3.7 seconds.
 File lengths (MBytes):  RWF=      6 Int=      0 D2E=      0 Chk=     16 Scr=      1
 Normal termination of Gaussian 16 at Thu Feb 22 14:28:21 2024.
