 Entering Gaussian System, Link 0=g16
 Input=formaldehyde.gjf
 Output=formaldehyde.log
 Initial command:
 /apps/gaussian/g16-c01-avx2/g16/l1.exe "/var/tmp/pbs.8968500.pbs/Gau-1353963.inp" -scrdir="/var/tmp/pbs.8968500.pbs/"
 Entering Link 1 = /apps/gaussian/g16-c01-avx2/g16/l1.exe PID=   1353964.
  
 Copyright (c) 1988-2019, Gaussian, Inc.  All Rights Reserved.
  
 This is part of the Gaussian(R) 16 program.  It is based on
 the Gaussian(R) 09 system (copyright 2009, Gaussian, Inc.),
 the Gaussian(R) 03 system (copyright 2003, Gaussian, Inc.),
 the Gaussian(R) 98 system (copyright 1998, Gaussian, Inc.),
 the Gaussian(R) 94 system (copyright 1995, Gaussian, Inc.),
 the Gaussian 92(TM) system (copyright 1992, Gaussian, Inc.),
 the Gaussian 90(TM) system (copyright 1990, Gaussian, Inc.),
 the Gaussian 88(TM) system (copyright 1988, Gaussian, Inc.),
 the Gaussian 86(TM) system (copyright 1986, Carnegie Mellon
 University), and the Gaussian 82(TM) system (copyright 1983,
 Carnegie Mellon University). Gaussian is a federally registered
 trademark of Gaussian, Inc.
  
 This software contains proprietary and confidential information,
 including trade secrets, belonging to Gaussian, Inc.
  
 This software is provided under written license and may be
 used, copied, transmitted, or stored only in accord with that
 written license.
  
 The following legend is applicable only to US Government
 contracts under FAR:
  
                    RESTRICTED RIGHTS LEGEND
  
 Use, reproduction and disclosure by the US Government is
 subject to restrictions as set forth in subparagraphs (a)
 and (c) of the Commercial Computer Software - Restricted
 Rights clause in FAR 52.227-19.
  
 Gaussian, Inc.
 340 Quinnipiac St., Bldg. 40, Wallingford CT 06492
  
  
 ---------------------------------------------------------------
 Warning -- This program may not be used in any manner that
 competes with the business of Gaussian, Inc. or will provide
 assistance to any competitor of Gaussian, Inc.  The licensee
 of this program is prohibited from giving any competitor of
 Gaussian, Inc. access to this program.  By using this program,
 the user acknowledges that Gaussian, Inc. is engaged in the
 business of creating and licensing software in the field of
 computational chemistry and represents and warrants to the
 licensee that it is not a competitor of Gaussian, Inc. and that
 it will not use this program in any manner prohibited above.
 ---------------------------------------------------------------
  

 Cite this work as:
 Gaussian 16, Revision C.01,
 M. J. Frisch, G. W. Trucks, H. B. Schlegel, G. E. Scuseria, 
 M. A. Robb, J. R. Cheeseman, G. Scalmani, V. Barone, 
 G. A. Petersson, H. Nakatsuji, X. Li, M. Caricato, A. V. Marenich, 
 J. Bloino, B. G. Janesko, R. Gomperts, B. Mennucci, H. P. Hratchian, 
 J. V. Ortiz, A. F. Izmaylov, J. L. Sonnenberg, D. Williams-Young, 
 F. Ding, F. Lipparini, F. Egidi, J. Goings, B. Peng, A. Petrone, 
 T. Henderson, D. Ranasinghe, V. G. Zakrzewski, J. Gao, N. Rega, 
 G. Zheng, W. Liang, M. Hada, M. Ehara, K. Toyota, R. Fukuda, 
 J. Hasegawa, M. Ishida, T. Nakajima, Y. Honda, O. Kitao, H. Nakai, 
 T. Vreven, K. Throssell, J. A. Montgomery, Jr., J. E. Peralta, 
 F. Ogliaro, M. J. Bearpark, J. J. Heyd, E. N. Brothers, K. N. Kudin, 
 V. N. Staroverov, T. A. Keith, R. Kobayashi, J. Normand, 
 K. Raghavachari, A. P. Rendell, J. C. Burant, S. S. Iyengar, 
 J. Tomasi, M. Cossi, J. M. Millam, M. Klene, C. Adamo, R. Cammi, 
 J. W. Ochterski, R. L. Martin, K. Morokuma, O. Farkas, 
 J. B. Foresman, and D. J. Fox, Gaussian, Inc., Wallingford CT, 2019.
 
 ******************************************
 Gaussian 16:  ES64L-G16RevC.01  3-Jul-2019
                22-Feb-2024 
 ******************************************
 %chk=formaldehyde.chk
 --------------------------------------
 # hf/sto-3g geom=connectivity Opt Freq
 --------------------------------------
 1/18=20,19=15,38=1,57=2/1,3;
 2/9=110,12=2,17=6,18=5,40=1/2;
 3/6=3,11=9,25=1,30=1,71=1/1,2,3;
 4//1;
 5/5=2,38=5/2;
 6/7=2,8=2,9=2,10=2,28=1/1;
 7//1,2,3,16;
 1/18=20,19=15/3(2);
 2/9=110/2;
 99//99;
 2/9=110/2;
 3/6=3,11=9,25=1,30=1,71=1/1,2,3;
 4/5=5,16=3,69=1/1;
 5/5=2,38=5/2;
 7//1,2,3,16;
 1/18=20,19=15/3(-5);
 2/9=110/2;
 6/7=2,8=2,9=2,10=2,19=2,28=1/1;
 99/9=1/99;
 --------------------------------------------------------------------
 Ground state optimization and frequency calculation for formaldehyde
 --------------------------------------------------------------------
 Symbolic Z-matrix:
 Charge =  0 Multiplicity = 1
 C                    -0.52227  -0.40421   0. 
 H                     0.0129   -1.33076   0. 
 H                    -1.59227  -0.40441   0. 
 O                     0.10673   0.68571   0. 
 

 GradGradGradGradGradGradGradGradGradGradGradGradGradGradGradGradGradGrad
 Berny optimization.
 Initialization pass.
                           ----------------------------
                           !    Initial Parameters    !
                           ! (Angstroms and Degrees)  !
 --------------------------                            --------------------------
 ! Name  Definition              Value          Derivative Info.                !
 --------------------------------------------------------------------------------
 ! R1    R(1,2)                  1.07           estimate D2E/DX2                !
 ! R2    R(1,3)                  1.07           estimate D2E/DX2                !
 ! R3    R(1,4)                  1.2584         estimate D2E/DX2                !
 ! A1    A(2,1,3)              120.0            estimate D2E/DX2                !
 ! A2    A(2,1,4)              120.0            estimate D2E/DX2                !
 ! A3    A(3,1,4)              120.0            estimate D2E/DX2                !
 ! D1    D(2,1,4,3)            180.0            estimate D2E/DX2                !
 --------------------------------------------------------------------------------
 Trust Radius=3.00D-01 FncErr=1.00D-07 GrdErr=1.00D-07 EigMax=2.50D+02 EigMin=1.00D-04
 Number of steps in this run=     20 maximum allowed number of steps=    100.
 GradGradGradGradGradGradGradGradGradGradGradGradGradGradGradGradGradGrad

                          Input orientation:                          
 ---------------------------------------------------------------------
 Center     Atomic      Atomic             Coordinates (Angstroms)
 Number     Number       Type             X           Y           Z
 ---------------------------------------------------------------------
      1          6           0       -0.522268   -0.404213    0.000000
      2          1           0        0.012900   -1.330763    0.000000
      3          1           0       -1.592268   -0.404408    0.000000
      4          8           0        0.106734    0.685708    0.000000
 ---------------------------------------------------------------------
                    Distance matrix (angstroms):
                    1          2          3          4
     1  C    0.000000
     2  H    1.070000   0.000000
     3  H    1.070000   1.853294   0.000000
     4  O    1.258400   2.018653   2.018653   0.000000
 Stoichiometry    CH2O
 Framework group  C2V[C2(CO),SGV(H2)]
 Deg. of freedom     3
 Full point group                 C2V     NOp   4
 Largest Abelian subgroup         C2V     NOp   4
 Largest concise Abelian subgroup C2      NOp   2
                         Standard orientation:                         
 ---------------------------------------------------------------------
 Center     Atomic      Atomic             Coordinates (Angstroms)
 Number     Number       Type             X           Y           Z
 ---------------------------------------------------------------------
      1          6           0        0.000000   -0.000000   -0.562325
      2          1           0        0.000000   -0.926647   -1.097325
      3          1           0        0.000000    0.926647   -1.097325
      4          8           0        0.000000   -0.000000    0.696075
 ---------------------------------------------------------------------
 Rotational constants (GHZ):         291.9935432          36.5845887          32.5111827
 Standard basis: STO-3G (5D, 7F)
 There are     7 symmetry adapted cartesian basis functions of A1  symmetry.
 There are     0 symmetry adapted cartesian basis functions of A2  symmetry.
 There are     2 symmetry adapted cartesian basis functions of B1  symmetry.
 There are     3 symmetry adapted cartesian basis functions of B2  symmetry.
 There are     7 symmetry adapted basis functions of A1  symmetry.
 There are     0 symmetry adapted basis functions of A2  symmetry.
 There are     2 symmetry adapted basis functions of B1  symmetry.
 There are     3 symmetry adapted basis functions of B2  symmetry.
    12 basis functions,    36 primitive gaussians,    12 cartesian basis functions
     8 alpha electrons        8 beta electrons
       nuclear repulsion energy        30.5992945771 Hartrees.
 NAtoms=    4 NActive=    4 NUniq=    3 SFac= 1.78D+00 NAtFMM=   60 NAOKFM=F Big=F
 Integral buffers will be    131072 words long.
 Raffenetti 1 integral format.
 Two-electron integral symmetry is turned on.
 One-electron integrals computed using PRISM.
 NBasis=    12 RedAO= T EigKep=  2.44D-01  NBF=     7     0     2     3
 NBsUse=    12 1.00D-06 EigRej= -1.00D+00 NBFU=     7     0     2     3
 ExpMin= 1.69D-01 ExpMax= 1.31D+02 ExpMxC= 1.31D+02 IAcc=3 IRadAn=         5 AccDes= 0.00D+00
 Harris functional with IExCor=  205 and IRadAn=       5 diagonalized for initial guess.
 HarFok:  IExCor=  205 AccDes= 0.00D+00 IRadAn=         5 IDoV= 1 UseB2=F ITyADJ=14
 ICtDFT=  3500011 ScaDFX=  1.000000  1.000000  1.000000  1.000000
 FoFCou: FMM=F IPFlag=           0 FMFlag=      100000 FMFlg1=           0
         NFxFlg=           0 DoJE=T BraDBF=F KetDBF=T FulRan=T
         wScrn=  0.000000 ICntrl=       500 IOpCl=  0 I1Cent=   200000004 NGrid=           0
         NMat0=    1 NMatS0=      1 NMatT0=    0 NMatD0=    1 NMtDS0=    0 NMtDT0=    0
 Petite list used in FoFCou.
 Initial guess orbital symmetries:
       Occupied  (A1) (A1) (A1) (A1) (B2) (A1) (B1) (B2)
       Virtual   (B1) (A1) (A1) (B2)
 The electronic state of the initial guess is 1-A1.
 Keep R1 ints in memory in symmetry-blocked form, NReq=807829.
 Requested convergence on RMS density matrix=1.00D-08 within 128 cycles.
 Requested convergence on MAX density matrix=1.00D-06.
 Requested convergence on             energy=1.00D-06.
 No special actions if energy rises.
 SCF Done:  E(RHF) =  -112.349068079     A.U. after    9 cycles
            NFock=  9  Conv=0.87D-08     -V/T= 2.0089

 **********************************************************************

            Population analysis using the SCF Density.

 **********************************************************************

 Orbital symmetries:
       Occupied  (A1) (A1) (A1) (A1) (B2) (A1) (B1) (B2)
       Virtual   (B1) (A1) (B2) (A1)
 The electronic state is 1-A1.
 Alpha  occ. eigenvalues --  -20.30297 -11.11402  -1.30945  -0.81755  -0.63744
 Alpha  occ. eigenvalues --   -0.53203  -0.41958  -0.35987
 Alpha virt. eigenvalues --    0.26746   0.65006   0.77957   0.84799
          Condensed to atoms (all electrons):
               1          2          3          4
     1  C    4.773807   0.381108   0.381108   0.424494
     2  H    0.381108   0.606304  -0.032570  -0.022619
     3  H    0.381108  -0.032570   0.606304  -0.022619
     4  O    0.424494  -0.022619  -0.022619   7.795783
 Mulliken charges:
               1
     1  C    0.039484
     2  H    0.067778
     3  H    0.067778
     4  O   -0.175039
 Sum of Mulliken charges =  -0.00000
 Mulliken charges with hydrogens summed into heavy atoms:
               1
     1  C    0.175039
     4  O   -0.175039
 Electronic spatial extent (au):  <R**2>=             59.2657
 Charge=             -0.0000 electrons
 Dipole moment (field-independent basis, Debye):
    X=              0.0000    Y=              0.0000    Z=             -1.5600  Tot=              1.5600
 Quadrupole moment (field-independent basis, Debye-Ang):
   XX=            -10.4395   YY=            -10.4568   ZZ=            -11.2711
   XY=              0.0000   XZ=             -0.0000   YZ=             -0.0000
 Traceless Quadrupole moment (field-independent basis, Debye-Ang):
   XX=              0.2830   YY=              0.2656   ZZ=             -0.5486
   XY=              0.0000   XZ=             -0.0000   YZ=             -0.0000
 Octapole moment (field-independent basis, Debye-Ang**2):
  XXX=             -0.0000  YYY=             -0.0000  ZZZ=              2.8401  XYY=             -0.0000
  XXY=             -0.0000  XXZ=              1.6594  XZZ=             -0.0000  YZZ=             -0.0000
  YYZ=              0.4007  XYZ=             -0.0000
 Hexadecapole moment (field-independent basis, Debye-Ang**3):
 XXXX=             -6.9036 YYYY=            -14.3163 ZZZZ=            -40.7069 XXXY=             -0.0000
 XXXZ=              0.0000 YYYX=             -0.0000 YYYZ=             -0.0000 ZZZX=              0.0000
 ZZZY=             -0.0000 XXYY=             -3.7851 XXZZ=             -7.8021 YYZZ=             -8.3900
 XXYZ=             -0.0000 YYXZ=             -0.0000 ZZXY=              0.0000
 N-N= 3.059929457712D+01 E-N=-3.262715609955D+02  KE= 1.113606294447D+02
 Symmetry A1   KE= 1.008855296254D+02
 Symmetry A2   KE= 0.000000000000D+00
 Symmetry B1   KE= 3.572761470853D+00
 Symmetry B2   KE= 6.902338348515D+00
 Calling FoFJK, ICntrl=      2127 FMM=F ISym2X=1 I1Cent= 0 IOpClX= 0 NMat=1 NMatS=1 NMatT=0.
 ***** Axes restored to original set *****
 -------------------------------------------------------------------
 Center     Atomic                   Forces (Hartrees/Bohr)
 Number     Number              X              Y              Z
 -------------------------------------------------------------------
      1        6           0.056166085    0.097323400   -0.000000000
      2        1           0.005263018   -0.026639237    0.000000000
      3        1          -0.025698575   -0.008771062    0.000000000
      4        8          -0.035730528   -0.061913100   -0.000000000
 -------------------------------------------------------------------
 Cartesian Forces:  Max     0.097323400 RMS     0.040011532

 GradGradGradGradGradGradGradGradGradGradGradGradGradGradGradGradGradGrad
 Berny optimization.
 FormGI is forming the generalized inverse of G from B-inverse, IUseBI=4.
 Internal  Forces:  Max     0.071483583 RMS     0.030799738
 Search for a local minimum.
 Step number   1 out of a maximum of   20
 All quantities printed in internal units (Hartrees-Bohrs-Radians)
 Mixed Optimization -- RFO/linear search
 Second derivative matrix not updated -- first step.
 The second derivative matrix:
                          R1        R2        R3        A1        A2
           R1           0.37230
           R2           0.00000   0.37230
           R3           0.00000   0.00000   0.80209
           A1           0.00000   0.00000   0.00000   0.16000
           A2           0.00000   0.00000   0.00000   0.00000   0.16000
           A3           0.00000   0.00000   0.00000   0.00000   0.00000
           D1           0.00000   0.00000   0.00000   0.00000   0.00000
                          A3        D1
           A3           0.16000
           D1           0.00000   0.03565
 ITU=  0
     Eigenvalues ---    0.03565   0.16000   0.16000   0.37230   0.37230
     Eigenvalues ---    0.80209
 RFO step:  Lambda=-1.09569127D-02 EMin= 3.56487693D-02
 Linear search not attempted -- first point.
 Iteration  1 RMS(Cart)=  0.03261046 RMS(Int)=  0.00121200
 Iteration  2 RMS(Cart)=  0.00130066 RMS(Int)=  0.00000090
 Iteration  3 RMS(Cart)=  0.00000072 RMS(Int)=  0.00000000
 ClnCor:  largest displacement from symmetrization is 3.11D-09 for atom     1.
 Variable       Old X    -DE/DX   Delta X   Delta X   Delta X     New X
                                 (Linear)    (Quad)   (Total)
    R1        2.02201   0.02570   0.00000   0.06706   0.06706   2.08906
    R2        2.02201   0.02570   0.00000   0.06706   0.06706   2.08906
    R3        2.37803  -0.07148   0.00000  -0.08792  -0.08792   2.29011
    A1        2.09440  -0.01182   0.00000  -0.06912  -0.06912   2.02527
    A2        2.09440   0.00591   0.00000   0.03456   0.03456   2.12896
    A3        2.09440   0.00591   0.00000   0.03456   0.03456   2.12896
    D1        3.14159   0.00000   0.00000   0.00000   0.00000   3.14159
         Item               Value     Threshold  Converged?
 Maximum Force            0.071484     0.000450     NO 
 RMS     Force            0.030800     0.000300     NO 
 Maximum Displacement     0.060360     0.001800     NO 
 RMS     Displacement     0.032485     0.001200     NO 
 Predicted change in Energy=-5.609341D-03
 GradGradGradGradGradGradGradGradGradGradGradGradGradGradGradGradGradGrad

                          Input orientation:                          
 ---------------------------------------------------------------------
 Center     Atomic      Atomic             Coordinates (Angstroms)
 Number     Number       Type             X           Y           Z
 ---------------------------------------------------------------------
      1          6           0       -0.503835   -0.372272   -0.000000
      2          1           0        0.015673   -1.348084   -0.000000
      3          1           0       -1.608653   -0.410673   -0.000000
      4          8           0        0.101912    0.677352    0.000000
 ---------------------------------------------------------------------
                    Distance matrix (angstroms):
                    1          2          3          4
     1  C    0.000000
     2  H    1.105485   0.000000
     3  H    1.105485   1.875413   0.000000
     4  O    1.211874   2.027271   2.027271   0.000000
 Stoichiometry    CH2O
 Framework group  C2V[C2(CO),SGV(H2)]
 Deg. of freedom     3
 Full point group                 C2V     NOp   4
 Largest Abelian subgroup         C2V     NOp   4
 Largest concise Abelian subgroup C2      NOp   2
                         Standard orientation:                         
 ---------------------------------------------------------------------
 Center     Atomic      Atomic             Coordinates (Angstroms)
 Number     Number       Type             X           Y           Z
 ---------------------------------------------------------------------
      1          6           0        0.000000    0.000000   -0.532750
      2          1           0       -0.000000   -0.937706   -1.118245
      3          1           0        0.000000    0.937706   -1.118245
      4          8           0       -0.000000   -0.000000    0.679124
 ---------------------------------------------------------------------
 Rotational constants (GHZ):         285.1466102          38.4616098          33.8903557
 Standard basis: STO-3G (5D, 7F)
 There are     7 symmetry adapted cartesian basis functions of A1  symmetry.
 There are     0 symmetry adapted cartesian basis functions of A2  symmetry.
 There are     2 symmetry adapted cartesian basis functions of B1  symmetry.
 There are     3 symmetry adapted cartesian basis functions of B2  symmetry.
 There are     7 symmetry adapted basis functions of A1  symmetry.
 There are     0 symmetry adapted basis functions of A2  symmetry.
 There are     2 symmetry adapted basis functions of B1  symmetry.
 There are     3 symmetry adapted basis functions of B2  symmetry.
    12 basis functions,    36 primitive gaussians,    12 cartesian basis functions
     8 alpha electrons        8 beta electrons
       nuclear repulsion energy        31.1625214062 Hartrees.
 NAtoms=    4 NActive=    4 NUniq=    3 SFac= 1.78D+00 NAtFMM=   60 NAOKFM=F Big=F
 Integral buffers will be    131072 words long.
 Raffenetti 1 integral format.
 Two-electron integral symmetry is turned on.
 One-electron integrals computed using PRISM.
 NBasis=    12 RedAO= T EigKep=  2.38D-01  NBF=     7     0     2     3
 NBsUse=    12 1.00D-06 EigRej= -1.00D+00 NBFU=     7     0     2     3
 Initial guess from the checkpoint file:  "formaldehyde.chk"
 B after Tr=     0.000000   -0.000000    0.000000
         Rot=    1.000000   -0.000000   -0.000000    0.000000 Ang=   0.00 deg.
 Initial guess orbital symmetries:
       Occupied  (A1) (A1) (A1) (A1) (B2) (A1) (B1) (B2)
       Virtual   (B1) (A1) (B2) (A1)
 ExpMin= 1.69D-01 ExpMax= 1.31D+02 ExpMxC= 1.31D+02 IAcc=3 IRadAn=         5 AccDes= 0.00D+00
 Harris functional with IExCor=  205 and IRadAn=       5 diagonalized for initial guess.
 HarFok:  IExCor=  205 AccDes= 0.00D+00 IRadAn=         5 IDoV= 1 UseB2=F ITyADJ=14
 ICtDFT=  3500011 ScaDFX=  1.000000  1.000000  1.000000  1.000000
 FoFCou: FMM=F IPFlag=           0 FMFlag=      100000 FMFlg1=           0
         NFxFlg=           0 DoJE=T BraDBF=F KetDBF=T FulRan=T
         wScrn=  0.000000 ICntrl=       500 IOpCl=  0 I1Cent=   200000004 NGrid=           0
         NMat0=    1 NMatS0=      1 NMatT0=    0 NMatD0=    1 NMtDS0=    0 NMtDT0=    0
 Petite list used in FoFCou.
 Keep R1 ints in memory in symmetry-blocked form, NReq=807829.
 Requested convergence on RMS density matrix=1.00D-08 within 128 cycles.
 Requested convergence on MAX density matrix=1.00D-06.
 Requested convergence on             energy=1.00D-06.
 No special actions if energy rises.
 SCF Done:  E(RHF) =  -112.354169635     A.U. after    9 cycles
            NFock=  9  Conv=0.13D-08     -V/T= 2.0089
 Calling FoFJK, ICntrl=      2127 FMM=F ISym2X=1 I1Cent= 0 IOpClX= 0 NMat=1 NMatS=1 NMatT=0.
 ***** Axes restored to original set *****
 -------------------------------------------------------------------
 Center     Atomic                   Forces (Hartrees/Bohr)
 Number     Number              X              Y              Z
 -------------------------------------------------------------------
      1        6          -0.004670501   -0.008092945   -0.000000000
      2        1          -0.004686911    0.001283763    0.000000000
      3        1           0.003456470   -0.003415845    0.000000000
      4        8           0.005900942    0.010225027   -0.000000000
 -------------------------------------------------------------------
 Cartesian Forces:  Max     0.010225027 RMS     0.004777656

 GradGradGradGradGradGradGradGradGradGradGradGradGradGradGradGradGradGrad
 Berny optimization.
 Using GEDIIS/GDIIS optimizer.
 FormGI is forming the generalized inverse of G from B-inverse, IUseBI=4.
 Internal  Forces:  Max     0.011805605 RMS     0.005317896
 Search for a local minimum.
 Step number   2 out of a maximum of   20
 All quantities printed in internal units (Hartrees-Bohrs-Radians)
 Mixed Optimization -- RFO/linear search
 Update second derivatives using D2CorX and points    1    2
 DE= -5.10D-03 DEPred=-5.61D-03 R= 9.09D-01
 TightC=F SS=  1.41D+00  RLast= 1.55D-01 DXNew= 5.0454D-01 4.6370D-01
 Trust test= 9.09D-01 RLast= 1.55D-01 DXMaxT set to 4.64D-01
 The second derivative matrix:
                          R1        R2        R3        A1        A2
           R1           0.38468
           R2           0.01238   0.38468
           R3          -0.03807  -0.03807   0.91849
           A1           0.00904   0.00904  -0.02479   0.15255
           A2          -0.00452  -0.00452   0.01240   0.00373   0.15814
           A3          -0.00452  -0.00452   0.01240   0.00373  -0.00186
           D1           0.00000   0.00000  -0.00000  -0.00000   0.00000
                          A3        D1
           A3           0.15814
           D1           0.00000   0.03565
 ITU=  1  0
 Use linear search instead of GDIIS.
     Eigenvalues ---    0.03565   0.14688   0.16000   0.37230   0.39220
     Eigenvalues ---    0.92529
 RFO step:  Lambda=-3.30874717D-04 EMin= 3.56487693D-02
 Quartic linear search produced a step of -0.07770.
 Iteration  1 RMS(Cart)=  0.01676254 RMS(Int)=  0.00014311
 Iteration  2 RMS(Cart)=  0.00012255 RMS(Int)=  0.00000000
 Iteration  3 RMS(Cart)=  0.00000000 RMS(Int)=  0.00000000
 ClnCor:  largest displacement from symmetrization is 3.47D-09 for atom     1.
 Variable       Old X    -DE/DX   Delta X   Delta X   Delta X     New X
                                 (Linear)    (Quad)   (Total)
    R1        2.08906  -0.00334  -0.00521  -0.00074  -0.00595   2.08312
    R2        2.08906  -0.00334  -0.00521  -0.00074  -0.00595   2.08312
    R3        2.29011   0.01181   0.00683   0.00406   0.01090   2.30101
    A1        2.02527  -0.00492   0.00537  -0.03675  -0.03138   1.99389
    A2        2.12896   0.00246  -0.00269   0.01838   0.01569   2.14465
    A3        2.12896   0.00246  -0.00269   0.01838   0.01569   2.14465
    D1        3.14159   0.00000   0.00000   0.00000   0.00000   3.14159
         Item               Value     Threshold  Converged?
 Maximum Force            0.011806     0.000450     NO 
 RMS     Force            0.005318     0.000300     NO 
 Maximum Displacement     0.027020     0.001800     NO 
 RMS     Displacement     0.016783     0.001200     NO 
 Predicted change in Energy=-1.987865D-04
 GradGradGradGradGradGradGradGradGradGradGradGradGradGradGradGradGradGrad

                          Input orientation:                          
 ---------------------------------------------------------------------
 Center     Atomic      Atomic             Coordinates (Angstroms)
 Number     Number       Type             X           Y           Z
 ---------------------------------------------------------------------
      1          6           0       -0.501323   -0.367919    0.000000
      2          1           0        0.001375   -1.348963    0.000000
      3          1           0       -1.602260   -0.423493   -0.000000
      4          8           0        0.107306    0.686699   -0.000000
 ---------------------------------------------------------------------
                    Distance matrix (angstroms):
                    1          2          3          4
     1  C    0.000000
     2  H    1.102339   0.000000
     3  H    1.102339   1.851523   0.000000
     4  O    1.217640   2.038416   2.038416   0.000000
 Stoichiometry    CH2O
 Framework group  C2V[C2(CO),SGV(H2)]
 Deg. of freedom     3
 Full point group                 C2V     NOp   4
 Largest Abelian subgroup         C2V     NOp   4
 Largest concise Abelian subgroup C2      NOp   2
                         Standard orientation:                         
 ---------------------------------------------------------------------
 Center     Atomic      Atomic             Coordinates (Angstroms)
 Number     Number       Type             X           Y           Z
 ---------------------------------------------------------------------
      1          6           0        0.000000    0.000000   -0.534017
      2          1           0        0.000000   -0.925762   -1.132445
      3          1           0        0.000000    0.925762   -1.132445
      4          8           0       -0.000000   -0.000000    0.683624
 ---------------------------------------------------------------------
 Rotational constants (GHZ):         292.5523627          37.9574464          33.5982181
 Standard basis: STO-3G (5D, 7F)
 There are     7 symmetry adapted cartesian basis functions of A1  symmetry.
 There are     0 symmetry adapted cartesian basis functions of A2  symmetry.
 There are     2 symmetry adapted cartesian basis functions of B1  symmetry.
 There are     3 symmetry adapted cartesian basis functions of B2  symmetry.
 There are     7 symmetry adapted basis functions of A1  symmetry.
 There are     0 symmetry adapted basis functions of A2  symmetry.
 There are     2 symmetry adapted basis functions of B1  symmetry.
 There are     3 symmetry adapted basis functions of B2  symmetry.
    12 basis functions,    36 primitive gaussians,    12 cartesian basis functions
     8 alpha electrons        8 beta electrons
       nuclear repulsion energy        31.0604687890 Hartrees.
 NAtoms=    4 NActive=    4 NUniq=    3 SFac= 1.78D+00 NAtFMM=   60 NAOKFM=F Big=F
 Integral buffers will be    131072 words long.
 Raffenetti 1 integral format.
 Two-electron integral symmetry is turned on.
 One-electron integrals computed using PRISM.
 NBasis=    12 RedAO= T EigKep=  2.41D-01  NBF=     7     0     2     3
 NBsUse=    12 1.00D-06 EigRej= -1.00D+00 NBFU=     7     0     2     3
 Initial guess from the checkpoint file:  "formaldehyde.chk"
 B after Tr=    -0.000000    0.000000   -0.000000
         Rot=    1.000000   -0.000000   -0.000000   -0.000000 Ang=   0.00 deg.
 Initial guess orbital symmetries:
       Occupied  (A1) (A1) (A1) (A1) (B2) (A1) (B1) (B2)
       Virtual   (B1) (A1) (B2) (A1)
 ExpMin= 1.69D-01 ExpMax= 1.31D+02 ExpMxC= 1.31D+02 IAcc=3 IRadAn=         5 AccDes= 0.00D+00
 Harris functional with IExCor=  205 and IRadAn=       5 diagonalized for initial guess.
 HarFok:  IExCor=  205 AccDes= 0.00D+00 IRadAn=         5 IDoV= 1 UseB2=F ITyADJ=14
 ICtDFT=  3500011 ScaDFX=  1.000000  1.000000  1.000000  1.000000
 FoFCou: FMM=F IPFlag=           0 FMFlag=      100000 FMFlg1=           0
         NFxFlg=           0 DoJE=T BraDBF=F KetDBF=T FulRan=T
         wScrn=  0.000000 ICntrl=       500 IOpCl=  0 I1Cent=   200000004 NGrid=           0
         NMat0=    1 NMatS0=      1 NMatT0=    0 NMatD0=    1 NMtDS0=    0 NMtDT0=    0
 Petite list used in FoFCou.
 Keep R1 ints in memory in symmetry-blocked form, NReq=807829.
 Requested convergence on RMS density matrix=1.00D-08 within 128 cycles.
 Requested convergence on MAX density matrix=1.00D-06.
 Requested convergence on             energy=1.00D-06.
 No special actions if energy rises.
 SCF Done:  E(RHF) =  -112.354340256     A.U. after    8 cycles
            NFock=  8  Conv=0.30D-08     -V/T= 2.0090
 Calling FoFJK, ICntrl=      2127 FMM=F ISym2X=1 I1Cent= 0 IOpClX= 0 NMat=1 NMatS=1 NMatT=0.
 ***** Axes restored to original set *****
 -------------------------------------------------------------------
 Center     Atomic                   Forces (Hartrees/Bohr)
 Number     Number              X              Y              Z
 -------------------------------------------------------------------
      1        6           0.000205155    0.000355488   -0.000000000
      2        1           0.000202088    0.001022192    0.000000000
      3        1           0.000783950    0.000686395    0.000000000
      4        8          -0.001191193   -0.002064074   -0.000000000
 -------------------------------------------------------------------
 Cartesian Forces:  Max     0.002064074 RMS     0.000817478

 GradGradGradGradGradGradGradGradGradGradGradGradGradGradGradGradGradGrad
 Berny optimization.
 Using GEDIIS/GDIIS optimizer.
 FormGI is forming the generalized inverse of G from B-inverse, IUseBI=4.
 Internal  Forces:  Max     0.002383137 RMS     0.001083869
 Search for a local minimum.
 Step number   3 out of a maximum of   20
 All quantities printed in internal units (Hartrees-Bohrs-Radians)
 Mixed Optimization -- RFO/linear search
 Update second derivatives using D2CorX and points    1    2    3
 DE= -1.71D-04 DEPred=-1.99D-04 R= 8.58D-01
 TightC=F SS=  1.41D+00  RLast= 4.08D-02 DXNew= 7.7984D-01 1.2248D-01
 Trust test= 8.58D-01 RLast= 4.08D-02 DXMaxT set to 4.64D-01
 The second derivative matrix:
                          R1        R2        R3        A1        A2
           R1           0.37782
           R2           0.00552   0.37782
           R3          -0.02746  -0.02746   1.01118
           A1          -0.00128  -0.00128  -0.06041   0.16328
           A2           0.00064   0.00064   0.03021  -0.00164   0.16082
           A3           0.00064   0.00064   0.03021  -0.00164   0.00082
           D1           0.00000   0.00000   0.00000  -0.00000   0.00000
                          A3        D1
           A3           0.16082
           D1           0.00000   0.03565
 ITU=  1  1  0
 Use linear search instead of GDIIS.
     Eigenvalues ---    0.03565   0.15836   0.16000   0.37230   0.38114
     Eigenvalues ---    1.01993
 RFO step:  Lambda=-7.40434404D-06 EMin= 3.56487693D-02
 Quartic linear search produced a step of -0.12775.
 Iteration  1 RMS(Cart)=  0.00248702 RMS(Int)=  0.00000378
 Iteration  2 RMS(Cart)=  0.00000398 RMS(Int)=  0.00000000
 Iteration  3 RMS(Cart)=  0.00000000 RMS(Int)=  0.00000000
 ClnCor:  largest displacement from symmetrization is 1.50D-14 for atom     1.
 Variable       Old X    -DE/DX   Delta X   Delta X   Delta X     New X
                                 (Linear)    (Quad)   (Total)
    R1        2.08312  -0.00082   0.00076  -0.00302  -0.00226   2.08086
    R2        2.08312  -0.00082   0.00076  -0.00302  -0.00226   2.08086
    R3        2.30101  -0.00238  -0.00139  -0.00067  -0.00206   2.29894
    A1        1.99389   0.00090   0.00401   0.00065   0.00466   1.99855
    A2        2.14465  -0.00045  -0.00200  -0.00033  -0.00233   2.14232
    A3        2.14465  -0.00045  -0.00200  -0.00033  -0.00233   2.14232
    D1        3.14159   0.00000   0.00000   0.00000   0.00000   3.14159
         Item               Value     Threshold  Converged?
 Maximum Force            0.002383     0.000450     NO 
 RMS     Force            0.001084     0.000300     NO 
 Maximum Displacement     0.003635     0.001800     NO 
 RMS     Displacement     0.002486     0.001200     NO 
 Predicted change in Energy=-7.431560D-06
 GradGradGradGradGradGradGradGradGradGradGradGradGradGradGradGradGradGrad

                          Input orientation:                          
 ---------------------------------------------------------------------
 Center     Atomic      Atomic             Coordinates (Angstroms)
 Number     Number       Type             X           Y           Z
 ---------------------------------------------------------------------
      1          6           0       -0.501887   -0.368897    0.000000
      2          1           0        0.002548   -1.347706    0.000000
      3          1           0       -1.601758   -0.421848   -0.000000
      4          8           0        0.106196    0.684776   -0.000000
 ---------------------------------------------------------------------
                    Distance matrix (angstroms):
                    1          2          3          4
     1  C    0.000000
     2  H    1.101145   0.000000
     3  H    1.101145   1.852298   0.000000
     4  O    1.216549   2.035122   2.035122   0.000000
 Stoichiometry    CH2O
 Framework group  C2V[C2(CO),SGV(H2)]
 Deg. of freedom     3
 Full point group                 C2V     NOp   4
 Largest Abelian subgroup         C2V     NOp   4
 Largest concise Abelian subgroup C2      NOp   2
                         Standard orientation:                         
 ---------------------------------------------------------------------
 Center     Atomic      Atomic             Coordinates (Angstroms)
 Number     Number       Type             X           Y           Z
 ---------------------------------------------------------------------
      1          6           0        0.000000   -0.000000   -0.533822
      2          1           0       -0.000000   -0.926149   -1.129445
      3          1           0        0.000000    0.926149   -1.129445
      4          8           0       -0.000000    0.000000    0.682727
 ---------------------------------------------------------------------
 Rotational constants (GHZ):         292.3076086          38.0571270          33.6730486
 Standard basis: STO-3G (5D, 7F)
 There are     7 symmetry adapted cartesian basis functions of A1  symmetry.
 There are     0 symmetry adapted cartesian basis functions of A2  symmetry.
 There are     2 symmetry adapted cartesian basis functions of B1  symmetry.
 There are     3 symmetry adapted cartesian basis functions of B2  symmetry.
 There are     7 symmetry adapted basis functions of A1  symmetry.
 There are     0 symmetry adapted basis functions of A2  symmetry.
 There are     2 symmetry adapted basis functions of B1  symmetry.
 There are     3 symmetry adapted basis functions of B2  symmetry.
    12 basis functions,    36 primitive gaussians,    12 cartesian basis functions
     8 alpha electrons        8 beta electrons
       nuclear repulsion energy        31.0920308439 Hartrees.
 NAtoms=    4 NActive=    4 NUniq=    3 SFac= 1.78D+00 NAtFMM=   60 NAOKFM=F Big=F
 Integral buffers will be    131072 words long.
 Raffenetti 1 integral format.
 Two-electron integral symmetry is turned on.
 One-electron integrals computed using PRISM.
 NBasis=    12 RedAO= T EigKep=  2.41D-01  NBF=     7     0     2     3
 NBsUse=    12 1.00D-06 EigRej= -1.00D+00 NBFU=     7     0     2     3
 Initial guess from the checkpoint file:  "formaldehyde.chk"
 B after Tr=     0.000000    0.000000    0.000000
         Rot=    1.000000    0.000000    0.000000   -0.000000 Ang=   0.00 deg.
 Initial guess orbital symmetries:
       Occupied  (A1) (A1) (A1) (A1) (B2) (A1) (B1) (B2)
       Virtual   (B1) (A1) (B2) (A1)
 Keep R1 ints in memory in symmetry-blocked form, NReq=807829.
 Requested convergence on RMS density matrix=1.00D-08 within 128 cycles.
 Requested convergence on MAX density matrix=1.00D-06.
 Requested convergence on             energy=1.00D-06.
 No special actions if energy rises.
 SCF Done:  E(RHF) =  -112.354346976     A.U. after    8 cycles
            NFock=  8  Conv=0.61D-09     -V/T= 2.0089
 Calling FoFJK, ICntrl=      2127 FMM=F ISym2X=1 I1Cent= 0 IOpClX= 0 NMat=1 NMatS=1 NMatT=0.
 ***** Axes restored to original set *****
 -------------------------------------------------------------------
 Center     Atomic                   Forces (Hartrees/Bohr)
 Number     Number              X              Y              Z
 -------------------------------------------------------------------
      1        6          -0.000099667   -0.000172700   -0.000000000
      2        1           0.000123989   -0.000174958    0.000000000
      3        1          -0.000213520    0.000019821    0.000000000
      4        8           0.000189198    0.000327838   -0.000000000
 -------------------------------------------------------------------
 Cartesian Forces:  Max     0.000327838 RMS     0.000151382

 GradGradGradGradGradGradGradGradGradGradGradGradGradGradGradGradGradGrad
 Berny optimization.
 Using GEDIIS/GDIIS optimizer.
 FormGI is forming the generalized inverse of G from B-inverse, IUseBI=4.
 Internal  Forces:  Max     0.000378515 RMS     0.000183631
 Search for a local minimum.
 Step number   4 out of a maximum of   20
 All quantities printed in internal units (Hartrees-Bohrs-Radians)
 Mixed Optimization -- En-DIIS/RFO-DIIS
 Update second derivatives using D2CorX and points    1    2    3    4
 DE= -6.72D-06 DEPred=-7.43D-06 R= 9.04D-01
 TightC=F SS=  1.41D+00  RLast= 6.86D-03 DXNew= 7.7984D-01 2.0568D-02
 Trust test= 9.04D-01 RLast= 6.86D-03 DXMaxT set to 4.64D-01
 The second derivative matrix:
                          R1        R2        R3        A1        A2
           R1           0.40316
           R2           0.03086   0.40316
           R3           0.01314   0.01314   1.09316
           A1          -0.00336  -0.00336  -0.06409   0.15464
           A2           0.00168   0.00168   0.03205   0.00268   0.15866
           A3           0.00168   0.00168   0.03205   0.00268  -0.00134
           D1           0.00000   0.00000   0.00000  -0.00000   0.00000
                          A3        D1
           A3           0.15866
           D1           0.00000   0.03565
 ITU=  1  1  1  0
 Use linear search instead of GDIIS.
     Eigenvalues ---    0.03565   0.14539   0.16000   0.37230   0.43354
     Eigenvalues ---    1.10020
 RFO step:  Lambda=-2.47564682D-07 EMin= 3.56487693D-02
 Quartic linear search produced a step of -0.08849.
 Iteration  1 RMS(Cart)=  0.00036854 RMS(Int)=  0.00000006
 Iteration  2 RMS(Cart)=  0.00000005 RMS(Int)=  0.00000000
 ClnCor:  largest displacement from symmetrization is 9.96D-15 for atom     1.
 Variable       Old X    -DE/DX   Delta X   Delta X   Delta X     New X
                                 (Linear)    (Quad)   (Total)
    R1        2.08086   0.00021   0.00020   0.00028   0.00048   2.08135
    R2        2.08086   0.00021   0.00020   0.00028   0.00048   2.08135
    R3        2.29894   0.00038   0.00018   0.00019   0.00037   2.29932
    A1        1.99855   0.00004  -0.00041   0.00087   0.00046   1.99900
    A2        2.14232  -0.00002   0.00021  -0.00043  -0.00023   2.14209
    A3        2.14232  -0.00002   0.00021  -0.00043  -0.00023   2.14209
    D1        3.14159   0.00000   0.00000   0.00000   0.00000   3.14159
         Item               Value     Threshold  Converged?
 Maximum Force            0.000379     0.000450     YES
 RMS     Force            0.000184     0.000300     YES
 Maximum Displacement     0.000586     0.001800     YES
 RMS     Displacement     0.000369     0.001200     YES
 Predicted change in Energy=-1.876640D-07
 Optimization completed.
    -- Stationary point found.
                           ----------------------------
                           !   Optimized Parameters   !
                           ! (Angstroms and Degrees)  !
 --------------------------                            --------------------------
 ! Name  Definition              Value          Derivative Info.                !
 --------------------------------------------------------------------------------
 ! R1    R(1,2)                  1.1011         -DE/DX =    0.0002              !
 ! R2    R(1,3)                  1.1011         -DE/DX =    0.0002              !
 ! R3    R(1,4)                  1.2165         -DE/DX =    0.0004              !
 ! A1    A(2,1,3)              114.5084         -DE/DX =    0.0                 !
 ! A2    A(2,1,4)              122.7458         -DE/DX =    0.0                 !
 ! A3    A(3,1,4)              122.7458         -DE/DX =    0.0                 !
 ! D1    D(2,1,4,3)            180.0            -DE/DX =    0.0                 !
 --------------------------------------------------------------------------------
 GradGradGradGradGradGradGradGradGradGradGradGradGradGradGradGradGradGrad

                          Input orientation:                          
 ---------------------------------------------------------------------
 Center     Atomic      Atomic             Coordinates (Angstroms)
 Number     Number       Type             X           Y           Z
 ---------------------------------------------------------------------
      1          6           0       -0.501887   -0.368897    0.000000
      2          1           0        0.002548   -1.347706    0.000000
      3          1           0       -1.601758   -0.421848   -0.000000
      4          8           0        0.106196    0.684776   -0.000000
 ---------------------------------------------------------------------
                    Distance matrix (angstroms):
                    1          2          3          4
     1  C    0.000000
     2  H    1.101145   0.000000
     3  H    1.101145   1.852298   0.000000
     4  O    1.216549   2.035122   2.035122   0.000000
 Stoichiometry    CH2O
 Framework group  C2V[C2(CO),SGV(H2)]
 Deg. of freedom     3
 Full point group                 C2V     NOp   4
 Largest Abelian subgroup         C2V     NOp   4
 Largest concise Abelian subgroup C2      NOp   2
                         Standard orientation:                         
 ---------------------------------------------------------------------
 Center     Atomic      Atomic             Coordinates (Angstroms)
 Number     Number       Type             X           Y           Z
 ---------------------------------------------------------------------
      1          6           0       -0.000000    0.000000   -0.533822
      2          1           0       -0.000000   -0.926149   -1.129445
      3          1           0        0.000000    0.926149   -1.129445
      4          8           0        0.000000   -0.000000    0.682727
 ---------------------------------------------------------------------
 Rotational constants (GHZ):         292.3076086          38.0571270          33.6730486

 **********************************************************************

            Population analysis using the SCF Density.

 **********************************************************************

 Orbital symmetries:
       Occupied  (A1) (A1) (A1) (A1) (B2) (A1) (B1) (B2)
       Virtual   (B1) (A1) (B2) (A1)
 The electronic state is 1-A1.
 Alpha  occ. eigenvalues --  -20.31277 -11.12510  -1.33757  -0.80784  -0.63301
 Alpha  occ. eigenvalues --   -0.54562  -0.44330  -0.35440
 Alpha virt. eigenvalues --    0.28203   0.62894   0.73458   0.91320
          Condensed to atoms (all electrons):
               1          2          3          4
     1  C    4.735990   0.372190   0.372190   0.444659
     2  H    0.372190   0.630933  -0.037161  -0.022458
     3  H    0.372190  -0.037161   0.630933  -0.022458
     4  O    0.444659  -0.022458  -0.022458   7.788220
 Mulliken charges:
               1
     1  C    0.074971
     2  H    0.056496
     3  H    0.056496
     4  O   -0.187963
 Sum of Mulliken charges =   0.00000
 Mulliken charges with hydrogens summed into heavy atoms:
               1
     1  C    0.187963
     4  O   -0.187963
 Electronic spatial extent (au):  <R**2>=             58.6598
 Charge=              0.0000 electrons
 Dipole moment (field-independent basis, Debye):
    X=              0.0000    Y=             -0.0000    Z=             -1.5366  Tot=              1.5366
 Quadrupole moment (field-independent basis, Debye-Ang):
   XX=            -10.4250   YY=            -10.5468   ZZ=            -11.3099
   XY=              0.0000   XZ=             -0.0000   YZ=              0.0000
 Traceless Quadrupole moment (field-independent basis, Debye-Ang):
   XX=              0.3356   YY=              0.2138   ZZ=             -0.5493
   XY=              0.0000   XZ=             -0.0000   YZ=              0.0000
 Octapole moment (field-independent basis, Debye-Ang**2):
  XXX=             -0.0000  YYY=             -0.0000  ZZZ=              2.6818  XYY=             -0.0000
  XXY=             -0.0000  XXZ=              1.6237  XZZ=             -0.0000  YZZ=             -0.0000
  YYZ=              0.4678  XYZ=             -0.0000
 Hexadecapole moment (field-independent basis, Debye-Ang**3):
 XXXX=             -6.8831 YYYY=            -14.5681 ZZZZ=            -39.9014 XXXY=             -0.0000
 XXXZ=              0.0000 YYYX=             -0.0000 YYYZ=              0.0000 ZZZX=              0.0000
 ZZZY=              0.0000 XXYY=             -3.8020 XXZZ=             -7.7065 YYZZ=             -8.2849
 XXYZ=             -0.0000 YYXZ=              0.0000 ZZXY=              0.0000
 N-N= 3.109203084386D+01 E-N=-3.271341662347D+02  KE= 1.113606439288D+02
 Symmetry A1   KE= 1.009464952182D+02
 Symmetry A2   KE= 0.000000000000D+00
 Symmetry B1   KE= 3.565959611508D+00
 Symmetry B2   KE= 6.848189099119D+00
 Unable to Open any file for archive entry.
 1\1\GINC-CX3-7-2\FOpt\RHF\STO-3G\C1H2O1\RK820\22-Feb-2024\0\\# hf/sto-
 3g geom=connectivity Opt Freq\\Ground state optimization and frequency
  calculation for formaldehyde\\0,1\C,-0.5018872686,-0.3688974972,0.\H,
 0.0025477186,-1.3477056253,0.\H,-1.6017582726,-0.4218482504,0.\O,0.106
 1955746,0.684775536,0.\\Version=ES64L-G16RevC.01\State=1-A1\HF=-112.35
 4347\RMSD=6.096e-10\RMSF=1.514e-04\Dipole=-0.3021716,-0.5235965,0.\Qua
 drupole=0.0171881,-0.2666646,0.2494765,-0.2456172,0.,0.\PG=C02V [C2(C1
 O1),SGV(H2)]\\@
 The archive entry for this job was punched.


 CHARLIE BROWN -- WHICH DO YOU THINK LASTS LONGER IN LIFE, THE GOOD THINGS 
                  OR THE BAD THINGS?
 LINUS --         GOOD THINGS LAST EIGHT SECONDS ..
                  BAD THINGS LAST THREE WEEKS
 CHARLIE BROWN -- WHAT ABOUT IN BETWEEN?
 SNOOPY --        IN BETWEEN YOU SHOULD TAKE A NAP ...
 Job cpu time:       0 days  0 hours  0 minutes  3.6 seconds.
 Elapsed time:       0 days  0 hours  0 minutes  3.5 seconds.
 File lengths (MBytes):  RWF=      6 Int=      0 D2E=      0 Chk=     16 Scr=      1
 Normal termination of Gaussian 16 at Thu Feb 22 02:33:02 2024.
 Link1:  Proceeding to internal job step number  2.
 ---------------------------------------------------------------
 #N Geom=AllCheck Guess=TCheck SCRF=Check GenChk RHF/STO-3G Freq
 ---------------------------------------------------------------
 1/10=4,29=7,30=1,38=1,40=1/1,3;
 2/12=2,40=1/2;
 3/6=3,11=1,14=-4,25=1,30=1,70=2,71=2,116=1,140=1/1,2,3;
 4/5=101/1;
 5/5=2,38=6,98=1/2;
 8/6=4,10=90,11=11/1;
 10/13=10,15=4/2;
 11/6=3,8=1,9=11,15=111,16=1/1,2,10;
 10/6=1/2;
 6/7=2,8=2,9=2,10=2,28=1/1;
 7/8=1,10=1,25=1/1,2,3,16;
 1/10=4,30=1/3;
 99//99;
 Structure from the checkpoint file:  "formaldehyde.chk"
 --------------------------------------------------------------------
 Ground state optimization and frequency calculation for formaldehyde
 --------------------------------------------------------------------
 Charge =  0 Multiplicity = 1
 Redundant internal coordinates found in file.  (old form).
 C,0,-0.5018872686,-0.3688974972,0.
 H,0,0.0025477186,-1.3477056253,0.
 H,0,-1.6017582726,-0.4218482504,0.
 O,0,0.1061955746,0.684775536,0.
 Recover connectivity data from disk.

 GradGradGradGradGradGradGradGradGradGradGradGradGradGradGradGradGradGrad
 Berny optimization.
 Initialization pass.
                           ----------------------------
                           !    Initial Parameters    !
                           ! (Angstroms and Degrees)  !
 --------------------------                            --------------------------
 ! Name  Definition              Value          Derivative Info.                !
 --------------------------------------------------------------------------------
 ! R1    R(1,2)                  1.1011         calculate D2E/DX2 analytically  !
 ! R2    R(1,3)                  1.1011         calculate D2E/DX2 analytically  !
 ! R3    R(1,4)                  1.2165         calculate D2E/DX2 analytically  !
 ! A1    A(2,1,3)              114.5084         calculate D2E/DX2 analytically  !
 ! A2    A(2,1,4)              122.7458         calculate D2E/DX2 analytically  !
 ! A3    A(3,1,4)              122.7458         calculate D2E/DX2 analytically  !
 ! D1    D(2,1,4,3)            180.0            calculate D2E/DX2 analytically  !
 --------------------------------------------------------------------------------
 Trust Radius=3.00D-01 FncErr=1.00D-07 GrdErr=1.00D-07 EigMax=2.50D+02 EigMin=1.00D-04
 Number of steps in this run=      2 maximum allowed number of steps=      2.
 GradGradGradGradGradGradGradGradGradGradGradGradGradGradGradGradGradGrad

                          Input orientation:                          
 ---------------------------------------------------------------------
 Center     Atomic      Atomic             Coordinates (Angstroms)
 Number     Number       Type             X           Y           Z
 ---------------------------------------------------------------------
      1          6           0       -0.501887   -0.368897    0.000000
      2          1           0        0.002548   -1.347706    0.000000
      3          1           0       -1.601758   -0.421848   -0.000000
      4          8           0        0.106196    0.684776   -0.000000
 ---------------------------------------------------------------------
                    Distance matrix (angstroms):
                    1          2          3          4
     1  C    0.000000
     2  H    1.101145   0.000000
     3  H    1.101145   1.852298   0.000000
     4  O    1.216549   2.035122   2.035122   0.000000
 Stoichiometry    CH2O
 Framework group  C2V[C2(CO),SGV(H2)]
 Deg. of freedom     3
 Full point group                 C2V     NOp   4
 Largest Abelian subgroup         C2V     NOp   4
 Largest concise Abelian subgroup C2      NOp   2
                         Standard orientation:                         
 ---------------------------------------------------------------------
 Center     Atomic      Atomic             Coordinates (Angstroms)
 Number     Number       Type             X           Y           Z
 ---------------------------------------------------------------------
      1          6           0       -0.000000    0.000000   -0.533822
      2          1           0       -0.000000   -0.926149   -1.129445
      3          1           0        0.000000    0.926149   -1.129445
      4          8           0        0.000000   -0.000000    0.682727
 ---------------------------------------------------------------------
 Rotational constants (GHZ):         292.3076086          38.0571270          33.6730486
 Standard basis: STO-3G (5D, 7F)
 There are     7 symmetry adapted cartesian basis functions of A1  symmetry.
 There are     0 symmetry adapted cartesian basis functions of A2  symmetry.
 There are     2 symmetry adapted cartesian basis functions of B1  symmetry.
 There are     3 symmetry adapted cartesian basis functions of B2  symmetry.
 There are     7 symmetry adapted basis functions of A1  symmetry.
 There are     0 symmetry adapted basis functions of A2  symmetry.
 There are     2 symmetry adapted basis functions of B1  symmetry.
 There are     3 symmetry adapted basis functions of B2  symmetry.
    12 basis functions,    36 primitive gaussians,    12 cartesian basis functions
     8 alpha electrons        8 beta electrons
       nuclear repulsion energy        31.0920308439 Hartrees.
 NAtoms=    4 NActive=    4 NUniq=    3 SFac= 1.78D+00 NAtFMM=   60 NAOKFM=F Big=F
 Integral buffers will be    131072 words long.
 Raffenetti 1 integral format.
 Two-electron integral symmetry is turned on.
 One-electron integrals computed using PRISM.
 NBasis=    12 RedAO= T EigKep=  2.41D-01  NBF=     7     0     2     3
 NBsUse=    12 1.00D-06 EigRej= -1.00D+00 NBFU=     7     0     2     3
 Initial guess from the checkpoint file:  "formaldehyde.chk"
 B after Tr=    -0.000000   -0.000000    0.000000
         Rot=    1.000000    0.000000   -0.000000    0.000000 Ang=   0.00 deg.
 Initial guess orbital symmetries:
       Occupied  (A1) (A1) (A1) (A1) (B2) (A1) (B1) (B2)
       Virtual   (B1) (A1) (B2) (A1)
 Keep R1 ints in memory in symmetry-blocked form, NReq=807829.
 Requested convergence on RMS density matrix=1.00D-08 within 128 cycles.
 Requested convergence on MAX density matrix=1.00D-06.
 Requested convergence on             energy=1.00D-06.
 No special actions if energy rises.
 Skip diagonalization as Alpha Fock matrix is already diagonal.
 SCF Done:  E(RHF) =  -112.354346976     A.U. after    1 cycles
            NFock=  1  Conv=0.00D+00     -V/T= 2.0089
 Range of M.O.s used for correlation:     1    12
 NBasis=    12 NAE=     8 NBE=     8 NFC=     0 NFV=     0
 NROrb=     12 NOA=     8 NOB=     8 NVA=     4 NVB=     4
          Differentiating once with respect to electric field.
                with respect to dipole field.
          Electric field/nuclear overlap derivatives assumed to be zero.
 Keep R1 ints in memory in symmetry-blocked form, NReq=808297.
          There are     3 degrees of freedom in the 1st order CPHF.  IDoFFX=0 NUNeed=     3.
      3 vectors produced by pass  0 Test12= 1.07D-15 3.33D-08 XBig12= 3.69D+00 1.61D+00.
 AX will form     3 AO Fock derivatives at one time.
      3 vectors produced by pass  1 Test12= 1.07D-15 3.33D-08 XBig12= 2.66D-01 3.55D-01.
      3 vectors produced by pass  2 Test12= 1.07D-15 3.33D-08 XBig12= 2.31D-02 8.69D-02.
      3 vectors produced by pass  3 Test12= 1.07D-15 3.33D-08 XBig12= 1.52D-04 7.49D-03.
      3 vectors produced by pass  4 Test12= 1.07D-15 3.33D-08 XBig12= 5.34D-07 4.28D-04.
      3 vectors produced by pass  5 Test12= 1.07D-15 3.33D-08 XBig12= 2.85D-09 3.24D-05.
      1 vectors produced by pass  6 Test12= 1.07D-15 3.33D-08 XBig12= 2.51D-11 2.87D-06.
      1 vectors produced by pass  7 Test12= 1.07D-15 3.33D-08 XBig12= 5.81D-14 1.77D-07.
 InvSVY:  IOpt=1 It=  1 EMax= 1.11D-16
 Solved reduced A of dimension    20 with     3 vectors.
 End of Minotr F.D. properties file   721 does not exist.
 End of Minotr F.D. properties file   722 does not exist.
 End of Minotr F.D. properties file   788 does not exist.
 Symmetrizing basis deriv contribution to polar:
 IMax=3 JMax=2 DiffMx= 0.00D+00
 G2DrvN: will do     5 centers at a time, making    1 passes.
 PxScal for G2LodP:  IOpCl= 0 ISclPx=1 IMOff=     1 NMtTot=     4 NTT=      78 ScalPx= 1.54D+00
 Calling FoFCou, ICntrl=  3107 FMM=F I1Cent=   0 AccDes= 0.00D+00.
 End of G2Drv F.D. properties file   721 does not exist.
 End of G2Drv F.D. properties file   722 does not exist.
 End of G2Drv F.D. properties file   788 does not exist.
          IDoAtm=1111
          Differentiating once with respect to electric field.
                with respect to dipole field.
          Differentiating once with respect to nuclear coordinates.
 Keep R1 ints in memory in symmetry-blocked form, NReq=808392.
          There are    12 degrees of freedom in the 1st order CPHF.  IDoFFX=4 NUNeed=    12.
 Will reuse    3 saved solutions.
      9 vectors produced by pass  0 Test12= 2.67D-16 8.33D-09 XBig12= 4.61D-02 1.52D-01.
 AX will form     9 AO Fock derivatives at one time.
      9 vectors produced by pass  1 Test12= 2.67D-16 8.33D-09 XBig12= 2.37D-03 2.88D-02.
      9 vectors produced by pass  2 Test12= 2.67D-16 8.33D-09 XBig12= 4.99D-06 1.54D-03.
      4 vectors produced by pass  3 Test12= 2.67D-16 8.33D-09 XBig12= 3.91D-09 4.00D-05.
      1 vectors produced by pass  4 Test12= 2.67D-16 8.33D-09 XBig12= 1.32D-13 2.28D-07.
 InvSVY:  IOpt=1 It=  1 EMax= 2.22D-16
 Solved reduced A of dimension    32 with     9 vectors.
 Isotropic polarizability for W=    0.000000        6.35 Bohr**3.
 End of Minotr F.D. properties file   721 does not exist.
 End of Minotr F.D. properties file   722 does not exist.
 End of Minotr F.D. properties file   788 does not exist.

 **********************************************************************

            Population analysis using the SCF Density.

 **********************************************************************

 Orbital symmetries:
       Occupied  (A1) (A1) (A1) (A1) (B2) (A1) (B1) (B2)
       Virtual   (B1) (A1) (B2) (A1)
 The electronic state is 1-A1.
 Alpha  occ. eigenvalues --  -20.31277 -11.12510  -1.33757  -0.80784  -0.63301
 Alpha  occ. eigenvalues --   -0.54562  -0.44330  -0.35440
 Alpha virt. eigenvalues --    0.28203   0.62894   0.73458   0.91320
          Condensed to atoms (all electrons):
               1          2          3          4
     1  C    4.735990   0.372190   0.372190   0.444659
     2  H    0.372190   0.630933  -0.037161  -0.022458
     3  H    0.372190  -0.037161   0.630933  -0.022458
     4  O    0.444659  -0.022458  -0.022458   7.788220
 Mulliken charges:
               1
     1  C    0.074971
     2  H    0.056496
     3  H    0.056496
     4  O   -0.187963
 Sum of Mulliken charges =   0.00000
 Mulliken charges with hydrogens summed into heavy atoms:
               1
     1  C    0.187963
     4  O   -0.187963
 APT charges:
               1
     1  C    0.280288
     2  H    0.008070
     3  H    0.008070
     4  O   -0.296429
 Sum of APT charges =   0.00000
 APT charges with hydrogens summed into heavy atoms:
               1
     1  C    0.296429
     4  O   -0.296429
 Electronic spatial extent (au):  <R**2>=             58.6598
 Charge=              0.0000 electrons
 Dipole moment (field-independent basis, Debye):
    X=              0.0000    Y=             -0.0000    Z=             -1.5366  Tot=              1.5366
 Quadrupole moment (field-independent basis, Debye-Ang):
   XX=            -10.4250   YY=            -10.5468   ZZ=            -11.3099
   XY=              0.0000   XZ=             -0.0000   YZ=              0.0000
 Traceless Quadrupole moment (field-independent basis, Debye-Ang):
   XX=              0.3356   YY=              0.2138   ZZ=             -0.5493
   XY=              0.0000   XZ=             -0.0000   YZ=              0.0000
 Octapole moment (field-independent basis, Debye-Ang**2):
  XXX=             -0.0000  YYY=             -0.0000  ZZZ=              2.6818  XYY=             -0.0000
  XXY=              0.0000  XXZ=              1.6237  XZZ=             -0.0000  YZZ=             -0.0000
  YYZ=              0.4678  XYZ=             -0.0000
 Hexadecapole moment (field-independent basis, Debye-Ang**3):
 XXXX=             -6.8831 YYYY=            -14.5681 ZZZZ=            -39.9014 XXXY=             -0.0000
 XXXZ=              0.0000 YYYX=             -0.0000 YYYZ=              0.0000 ZZZX=              0.0000
 ZZZY=              0.0000 XXYY=             -3.8020 XXZZ=             -7.7065 YYZZ=             -8.2849
 XXYZ=             -0.0000 YYXZ=              0.0000 ZZXY=              0.0000
 N-N= 3.109203084386D+01 E-N=-3.271341662347D+02  KE= 1.113606439288D+02
 Symmetry A1   KE= 1.009464952182D+02
 Symmetry A2   KE= 0.000000000000D+00
 Symmetry B1   KE= 3.565959611508D+00
 Symmetry B2   KE= 6.848189099119D+00
  Exact polarizability:       2.479       0.000       5.897      -0.000       0.000      10.666
 Approx polarizability:       1.781       0.000       4.703      -0.000       0.000      12.929
 Calling FoFJK, ICntrl=    100127 FMM=F ISym2X=1 I1Cent= 0 IOpClX= 0 NMat=1 NMatS=1 NMatT=0.
 Full mass-weighted force constant matrix:
 Low frequencies ---  -54.0270  -29.4104  -24.4390   -0.0009    0.0011    0.0011
 Low frequencies --- 1278.2355 1397.1514 1767.4620
 Diagonal vibrational polarizability:
        0.1012651       0.4481531       0.0914209
 Diagonal vibrational hyperpolarizability:
        0.0000000       0.0000000      -3.2070222
 Harmonic frequencies (cm**-1), IR intensities (KM/Mole), Raman scattering
 activities (A**4/AMU), depolarization ratios for plane and unpolarized
 incident light, reduced masses (AMU), force constants (mDyne/A),
 and normal coordinates:
                      1                      2                      3
                     B1                     B2                     A1
 Frequencies --   1278.2355              1397.1513              1767.4620
 Red. masses --      1.3685                 1.3449                 1.1625
 Frc consts  --      1.3174                 1.5468                 2.1396
 IR Inten    --      6.1482                29.5891                 4.1495
 Raman Activ --      0.0074                 3.0391                16.3794
 Depolar (P) --      0.7500                 0.7500                 0.7075
 Depolar (U) --      0.8571                 0.8571                 0.8287
  Atom  AN      X      Y      Z        X      Y      Z        X      Y      Z
     1   6    -0.17   0.00   0.00     0.00   0.15   0.00    -0.00   0.00   0.03
     2   1     0.70  -0.00   0.00    -0.00  -0.27   0.64     0.00  -0.36   0.60
     3   1     0.70   0.00  -0.00    -0.00  -0.27  -0.64     0.00   0.36   0.60
     4   8     0.04  -0.00   0.00    -0.00  -0.08  -0.00     0.00  -0.00  -0.10
                      4                      5                      6
                     A1                     A1                     B2
 Frequencies --   2100.7333              3500.8640              3647.7267
 Red. masses --      5.0696                 1.0643                 1.1152
 Frc consts  --     13.1815                 7.6856                 8.7427
 IR Inten    --      8.4736                 1.8230                19.8911
 Raman Activ --      6.7147                38.6315                24.5171
 Depolar (P) --      0.0757                 0.1865                 0.7500
 Depolar (U) --      0.1408                 0.3143                 0.8571
  Atom  AN      X      Y      Z        X      Y      Z        X      Y      Z
     1   6    -0.00  -0.00   0.47    -0.00  -0.00  -0.07     0.00  -0.10   0.00
     2   1     0.00   0.52  -0.25     0.00   0.59   0.38    -0.00   0.59   0.38
     3   1     0.00  -0.52  -0.25     0.00  -0.59   0.38    -0.00   0.59  -0.38
     4   8     0.00   0.00  -0.33     0.00  -0.00   0.01    -0.00  -0.00  -0.00

 -------------------
 - Thermochemistry -
 -------------------
 Temperature   298.150 Kelvin.  Pressure   1.00000 Atm.
 Atom     1 has atomic number  6 and mass  12.00000
 Atom     2 has atomic number  1 and mass   1.00783
 Atom     3 has atomic number  1 and mass   1.00783
 Atom     4 has atomic number  8 and mass  15.99491
 Molecular mass:    30.01056 amu.
 Principal axes and moments of inertia in atomic units:
                           1         2         3
     Eigenvalues --     6.17412  47.42190  53.59601
           X           -0.00000   0.00000   1.00000
           Y            0.00000   1.00000  -0.00000
           Z            1.00000  -0.00000   0.00000
 This molecule is an asymmetric top.
 Rotational symmetry number  2.
 Rotational temperatures (Kelvin)     14.02855     1.82645     1.61605
 Rotational constants (GHZ):         292.30761    38.05713    33.67305
 Zero-point vibrational energy      81897.4 (Joules/Mol)
                                   19.57394 (Kcal/Mol)
 Vibrational temperatures:   1839.10  2010.19  2542.98  3022.49  5036.96
          (Kelvin)           5248.27
 
 Zero-point correction=                           0.031193 (Hartree/Particle)
 Thermal correction to Energy=                    0.034047
 Thermal correction to Enthalpy=                  0.034992
 Thermal correction to Gibbs Free Energy=         0.010186
 Sum of electronic and zero-point Energies=           -112.323154
 Sum of electronic and thermal Energies=              -112.320300
 Sum of electronic and thermal Enthalpies=            -112.319355
 Sum of electronic and thermal Free Energies=         -112.344161
 
                     E (Thermal)             CV                S
                      KCal/Mol        Cal/Mol-Kelvin    Cal/Mol-Kelvin
 Total                   21.365              6.264             52.208
 Electronic               0.000              0.000              0.000
 Translational            0.889              2.981             36.130
 Rotational               0.889              2.981             16.025
 Vibrational             19.588              0.303              0.053
                       Q            Log10(Q)             Ln(Q)
 Total Bot       0.206419D-04         -4.685251        -10.788188
 Total V=0       0.459780D+10          9.662550         22.248844
 Vib (Bot)       0.450532D-14        -14.346275        -33.033518
 Vib (V=0)       0.100352D+01          0.001526          0.003515
 Electronic      0.100000D+01          0.000000          0.000000
 Translational   0.646197D+07          6.810365         15.681445
 Rotational      0.709020D+03          2.850659          6.563884
 ***** Axes restored to original set *****
 -------------------------------------------------------------------
 Center     Atomic                   Forces (Hartrees/Bohr)
 Number     Number              X              Y              Z
 -------------------------------------------------------------------
      1        6          -0.000099667   -0.000172700   -0.000000000
      2        1           0.000123989   -0.000174958    0.000000000
      3        1          -0.000213520    0.000019821    0.000000000
      4        8           0.000189198    0.000327838   -0.000000000
 -------------------------------------------------------------------
 Cartesian Forces:  Max     0.000327838 RMS     0.000151382
 FormGI is forming the generalized inverse of G from B-inverse, IUseBI=4.

 GradGradGradGradGradGradGradGradGradGradGradGradGradGradGradGradGradGrad
 Berny optimization.
 Internal  Forces:  Max     0.000378515 RMS     0.000183631
 Search for a local minimum.
 Step number   1 out of a maximum of    2
 All quantities printed in internal units (Hartrees-Bohrs-Radians)
 Second derivative matrix not updated -- analytic derivatives used.
 The second derivative matrix:
                          R1        R2        R3        A1        A2
           R1           0.45128
           R2          -0.00453   0.45128
           R3           0.02903   0.02903   1.14586
           A1           0.00495   0.00495  -0.03981   0.11383
           A2           0.00889  -0.01384   0.01990  -0.05691   0.14235
           A3          -0.01384   0.00889   0.01990  -0.05691  -0.08544
           D1          -0.00000   0.00000   0.00000  -0.00000  -0.00000
                          A3        D1
           A3           0.14235
           D1           0.00000   0.06815
 ITU=  0
     Eigenvalues ---    0.06815   0.16790   0.22554   0.44481   0.45806
     Eigenvalues ---    1.15063
 Angle between quadratic step and forces=  31.31 degrees.
 Linear search not attempted -- first point.
 Iteration  1 RMS(Cart)=  0.00030798 RMS(Int)=  0.00000003
 Iteration  2 RMS(Cart)=  0.00000003 RMS(Int)=  0.00000000
 ClnCor:  largest displacement from symmetrization is 1.08D-14 for atom     3.
 Variable       Old X    -DE/DX   Delta X   Delta X   Delta X     New X
                                 (Linear)    (Quad)   (Total)
    R1        2.08086   0.00021   0.00000   0.00045   0.00045   2.08131
    R2        2.08086   0.00021   0.00000   0.00045   0.00045   2.08131
    R3        2.29894   0.00038   0.00000   0.00032   0.00032   2.29927
    A1        1.99855   0.00004   0.00000   0.00029   0.00029   1.99884
    A2        2.14232  -0.00002   0.00000  -0.00015  -0.00015   2.14217
    A3        2.14232  -0.00002   0.00000  -0.00015  -0.00015   2.14217
    D1        3.14159   0.00000   0.00000   0.00000   0.00000   3.14159
         Item               Value     Threshold  Converged?
 Maximum Force            0.000379     0.000450     YES
 RMS     Force            0.000184     0.000300     YES
 Maximum Displacement     0.000507     0.001800     YES
 RMS     Displacement     0.000308     0.001200     YES
 Predicted change in Energy=-1.656997D-07
 Optimization completed.
    -- Stationary point found.
                           ----------------------------
                           !   Optimized Parameters   !
                           ! (Angstroms and Degrees)  !
 --------------------------                            --------------------------
 ! Name  Definition              Value          Derivative Info.                !
 --------------------------------------------------------------------------------
 ! R1    R(1,2)                  1.1011         -DE/DX =    0.0002              !
 ! R2    R(1,3)                  1.1011         -DE/DX =    0.0002              !
 ! R3    R(1,4)                  1.2165         -DE/DX =    0.0004              !
 ! A1    A(2,1,3)              114.5084         -DE/DX =    0.0                 !
 ! A2    A(2,1,4)              122.7458         -DE/DX =    0.0                 !
 ! A3    A(3,1,4)              122.7458         -DE/DX =    0.0                 !
 ! D1    D(2,1,4,3)            180.0            -DE/DX =    0.0                 !
 --------------------------------------------------------------------------------
 GradGradGradGradGradGradGradGradGradGradGradGradGradGradGradGradGradGrad


 ----------------------------------------------------------------------

 Electric dipole moment (input orientation):
 (Debye = 10**-18 statcoulomb cm , SI units = C m)
                  (au)            (Debye)         (10**-30 SI)
   Tot        0.604534D+00      0.153657D+01      0.512545D+01
   x         -0.302172D+00     -0.768044D+00     -0.256192D+01
   y         -0.523596D+00     -0.133085D+01     -0.443924D+01
   z          0.000000D+00      0.000000D+00      0.000000D+00

 Dipole polarizability, Alpha (input orientation).
 (esu units = cm**3 , SI units = C**2 m**2 J**-1)
 Alpha(0;0):
               (au)            (10**-24 esu)      (10**-40 SI)
   iso        0.634734D+01      0.940579D+00      0.104653D+01
   aniso      0.712208D+01      0.105538D+01      0.117427D+01
   xx         0.708846D+01      0.105040D+01      0.116873D+01
   yx         0.206458D+01      0.305939D+00      0.340403D+00
   yy         0.947443D+01      0.140397D+01      0.156212D+01
   zx         0.000000D+00      0.000000D+00      0.000000D+00
   zy         0.000000D+00      0.000000D+00      0.000000D+00
   zz         0.247913D+01      0.367369D+00      0.408753D+00

 First dipole hyperpolarizability, Beta (input orientation).
 ||, _|_  parallel and perpendicular components, (z) with respect to z axis,
 vector components x,y,z.  Values do not include the 1/n! factor of 1/2.
 (esu units = statvolt**-1 cm**4 , SI units = C**3 m**3 J**-2)
 Beta(0;0,0):
               (au)            (10**-30 esu)      (10**-50 SI)
   || (z)     0.000000D+00      0.000000D+00      0.000000D+00
   _|_(z)     0.000000D+00      0.000000D+00      0.000000D+00
   x         -0.172305D+02     -0.148858D+00     -0.552472D-01
   y         -0.298566D+02     -0.257938D+00     -0.957311D-01
   z          0.000000D+00      0.000000D+00      0.000000D+00
   ||         0.689437D+01      0.595620D-01      0.221058D-01
   xxx       -0.598123D+01     -0.516731D-01     -0.191780D-01
   xxy       -0.208841D+01     -0.180423D-01     -0.669621D-02
   yxy        0.116325D+01      0.100496D-01      0.372980D-02
   yyy       -0.626007D+01     -0.540821D-01     -0.200721D-01
   xxz        0.000000D+00      0.000000D+00      0.000000D+00
   yxz        0.000000D+00      0.000000D+00      0.000000D+00
   yyz        0.000000D+00      0.000000D+00      0.000000D+00
   zxz       -0.925520D+00     -0.799578D-02     -0.296755D-02
   zyz       -0.160372D+01     -0.138549D-01     -0.514211D-02
   zzz        0.000000D+00      0.000000D+00      0.000000D+00

 ----------------------------------------------------------------------

 Dipole orientation:
     6         -0.40967521          0.23642673          1.07784821
     1          1.10617426         -0.63838171          2.20341391
     1         -1.92552468          1.11123516          2.20341391
     8         -0.40967521          0.23642673         -1.22109632

 Electric dipole moment (dipole orientation):
 (Debye = 10**-18 statcoulomb cm , SI units = C m)
                  (au)            (Debye)         (10**-30 SI)
   Tot        0.604534D+00      0.153657D+01      0.512545D+01
   x          0.000000D+00      0.000000D+00      0.000000D+00
   y          0.000000D+00      0.000000D+00      0.000000D+00
   z          0.604534D+00      0.153657D+01      0.512545D+01

 Dipole polarizability, Alpha (dipole orientation).
 (esu units = cm**3 , SI units = C**2 m**2 J**-1)
 Alpha(0;0):
               (au)            (10**-24 esu)      (10**-40 SI)
   iso        0.634734D+01      0.940579D+00      0.104653D+01
   aniso      0.712208D+01      0.105538D+01      0.117427D+01
   xx         0.504305D+01      0.747303D+00      0.831487D+00
   yx        -0.147966D+01     -0.219263D+00     -0.243963D+00
   yy         0.333305D+01      0.493907D+00      0.549546D+00
   zx         0.000000D+00      0.000000D+00      0.000000D+00
   zy         0.000000D+00      0.000000D+00      0.000000D+00
   zz         0.106659D+02      0.158053D+01      0.175857D+01

 First dipole hyperpolarizability, Beta (dipole orientation).
 ||, _|_  parallel and perpendicular components, (z) with respect to z axis,
 vector components x,y,z.  Values do not include the 1/n! factor of 1/2.
 (esu units = statvolt**-1 cm**4 , SI units = C**3 m**3 J**-2)
 Beta(0;0,0):
               (au)            (10**-30 esu)      (10**-50 SI)
   || (z)     0.689437D+01      0.595620D-01      0.221058D-01
   _|_(z)     0.229812D+01      0.198540D-01      0.736861D-02
   x          0.000000D+00      0.000000D+00      0.000000D+00
   y          0.000000D+00      0.000000D+00      0.000000D+00
   z          0.344718D+02      0.297810D+00      0.110529D+00
   ||         0.689437D+01      0.595620D-01      0.221058D-01
   xxx        0.000000D+00      0.000000D+00      0.000000D+00
   xxy        0.000000D+00      0.000000D+00      0.000000D+00
   yxy        0.000000D+00      0.000000D+00      0.000000D+00
   yyy        0.000000D+00      0.000000D+00      0.000000D+00
   xxz        0.404649D+01      0.349585D-01      0.129745D-01
   yxz       -0.126667D+01     -0.109431D-01     -0.406141D-02
   yyz        0.258263D+01      0.223119D-01      0.828085D-02
   zxz        0.000000D+00      0.000000D+00      0.000000D+00
   zyz        0.000000D+00      0.000000D+00      0.000000D+00
   zzz        0.486149D+01      0.419995D-01      0.155877D-01

 ----------------------------------------------------------------------
 Unable to Open any file for archive entry.
 1\1\GINC-CX3-7-2\Freq\RHF\STO-3G\C1H2O1\RK820\22-Feb-2024\0\\#N Geom=A
 llCheck Guess=TCheck SCRF=Check GenChk RHF/STO-3G Freq\\Ground state o
 ptimization and frequency calculation for formaldehyde\\0,1\C,-0.50188
 72686,-0.3688974972,0.\H,0.0025477186,-1.3477056253,0.\H,-1.6017582726
 ,-0.4218482504,0.\O,0.1061955746,0.684775536,0.\\Version=ES64L-G16RevC
 .01\State=1-A1\HF=-112.354347\RMSD=0.000e+00\RMSF=1.514e-04\ZeroPoint=
 0.0311931\Thermal=0.0340473\ETot=-112.3202996\HTot=-112.3193555\GTot=-
 112.3441609\Dipole=-0.3021716,-0.5235965,0.\DipoleDeriv=0.494412,-0.15
 75174,0.,-0.1575174,0.3123737,0.,0.,0.,0.0340793,-0.082599,0.0472637,0
 .,0.0469323,0.0299829,0.,0.,0.,0.0768266,-0.0390033,0.0721235,0.,0.072
 4549,-0.0136129,0.,0.,0.,0.0768266,-0.3728097,0.0381302,0.,0.0381302,-
 0.3287437,0.,0.,0.,-0.1877326\Polar=7.0884583,2.064577,9.4744302,0.,0.
 ,2.4791281\PolarDeriv=0.9036833,-0.9479665,-2.204165,0.,0.,-0.3996076,
 -0.1764629,-2.6494057,-2.0769842,0.,0.,-0.6924316,0.,0.,0.,-1.2501744,
 -2.1662757,0.,1.886413,-2.4315192,0.8791151,0.,0.,0.0373853,-0.2763823
 ,1.5832284,-4.8515222,0.,0.,-0.1641727,0.,0.,0.,0.6678665,-0.7962182,0
 .,-6.0167111,-0.2056759,0.1931133,0.,0.,-0.1608523,0.2629197,-2.025176
 3,-0.4339734,0.,0.,-0.0497683,0.,0.,0.,-1.0235439,0.1799078,0.,3.22661
 48,3.5851615,1.1319367,0.,0.,0.5230746,0.1899255,3.0913536,7.3624798,0
 .,0.,0.9063725,0.,0.,0.,1.6058519,2.7825861,0.\HyperPolar=-5.9812264,-
 2.0884134,1.1632515,-6.2600711,0.,0.,0.,-0.9255205,-1.6037222,0.\Quadr
 upole=0.0171881,-0.2666646,0.2494765,-0.2456172,0.,0.\PG=C02V [C2(C1O1
 ),SGV(H2)]\NImag=0\\0.95912432,0.25566678,1.25459101,0.,0.,0.19709679,
 -0.17970316,0.14437929,0.,0.16061352,0.14938134,-0.33360427,0.,-0.1479
 1973,0.37601595,0.,0.,-0.06618669,0.,0.,0.02214751,-0.42233598,0.00917
 948,0.,-0.00754491,-0.00849443,0.,0.45025348,0.00417743,-0.09097144,0.
 ,0.03300779,0.00661978,0.,0.01944453,0.08637598,0.,0.,-0.06618669,0.,0
 .,0.02225883,0.,0.,0.02214751,-0.35708518,-0.40922555,0.,0.02663455,0.
 00703282,0.,-0.02037260,-0.05662974,0.,0.35082323,-0.40922555,-0.83001
 530,0.,-0.02946735,-0.04903146,0.,-0.02012958,-0.00202432,0.,0.4588224
 8,0.88107108,0.,0.,-0.06472341,0.,0.,0.02178035,0.,0.,0.02178035,0.,0.
 ,0.02116272\\0.00009967,0.00017270,0.,-0.00012399,0.00017496,0.,0.0002
 1352,-0.00001982,0.,-0.00018920,-0.00032784,0.\\\@
 The archive entry for this job was punched.


 I WISH TO HAVE NO CONNECTION WITH ANY SHIP THAT DOES NOT SAIL FAST,
 FOR I INTEND TO GO IN HARM'S WAY.
     -- JOHN PAUL JONES, USN 1747-1792
 Job cpu time:       0 days  0 hours  0 minutes  1.0 seconds.
 Elapsed time:       0 days  0 hours  0 minutes  1.0 seconds.
 File lengths (MBytes):  RWF=      6 Int=      0 D2E=      0 Chk=     16 Scr=      1
 Normal termination of Gaussian 16 at Thu Feb 22 02:33:06 2024.
