 Entering Gaussian System, Link 0=g16
 Input=Azulene_6-13Gs.gjf
 Output=Azulene_6-13Gs.log
 Initial command:
 /apps/gaussian/g16-c01-avx2/g16/l1.exe "/var/tmp/pbs.9127297.pbs/Gau-2162249.inp" -scrdir="/var/tmp/pbs.9127297.pbs/"
 Entering Link 1 = /apps/gaussian/g16-c01-avx2/g16/l1.exe PID=   2162250.
  
 Copyright (c) 1988-2019, Gaussian, Inc.  All Rights Reserved.
  
 This is part of the Gaussian(R) 16 program.  It is based on
 the Gaussian(R) 09 system (copyright 2009, Gaussian, Inc.),
 the Gaussian(R) 03 system (copyright 2003, Gaussian, Inc.),
 the Gaussian(R) 98 system (copyright 1998, Gaussian, Inc.),
 the Gaussian(R) 94 system (copyright 1995, Gaussian, Inc.),
 the Gaussian 92(TM) system (copyright 1992, Gaussian, Inc.),
 the Gaussian 90(TM) system (copyright 1990, Gaussian, Inc.),
 the Gaussian 88(TM) system (copyright 1988, Gaussian, Inc.),
 the Gaussian 86(TM) system (copyright 1986, Carnegie Mellon
 University), and the Gaussian 82(TM) system (copyright 1983,
 Carnegie Mellon University). Gaussian is a federally registered
 trademark of Gaussian, Inc.
  
 This software contains proprietary and confidential information,
 including trade secrets, belonging to Gaussian, Inc.
  
 This software is provided under written license and may be
 used, copied, transmitted, or stored only in accord with that
 written license.
  
 The following legend is applicable only to US Government
 contracts under FAR:
  
                    RESTRICTED RIGHTS LEGEND
  
 Use, reproduction and disclosure by the US Government is
 subject to restrictions as set forth in subparagraphs (a)
 and (c) of the Commercial Computer Software - Restricted
 Rights clause in FAR 52.227-19.
  
 Gaussian, Inc.
 340 Quinnipiac St., Bldg. 40, Wallingford CT 06492
  
  
 ---------------------------------------------------------------
 Warning -- This program may not be used in any manner that
 competes with the business of Gaussian, Inc. or will provide
 assistance to any competitor of Gaussian, Inc.  The licensee
 of this program is prohibited from giving any competitor of
 Gaussian, Inc. access to this program.  By using this program,
 the user acknowledges that Gaussian, Inc. is engaged in the
 business of creating and licensing software in the field of
 computational chemistry and represents and warrants to the
 licensee that it is not a competitor of Gaussian, Inc. and that
 it will not use this program in any manner prohibited above.
 ---------------------------------------------------------------
  

 Cite this work as:
 Gaussian 16, Revision C.01,
 M. J. Frisch, G. W. Trucks, H. B. Schlegel, G. E. Scuseria, 
 M. A. Robb, J. R. Cheeseman, G. Scalmani, V. Barone, 
 G. A. Petersson, H. Nakatsuji, X. Li, M. Caricato, A. V. Marenich, 
 J. Bloino, B. G. Janesko, R. Gomperts, B. Mennucci, H. P. Hratchian, 
 J. V. Ortiz, A. F. Izmaylov, J. L. Sonnenberg, D. Williams-Young, 
 F. Ding, F. Lipparini, F. Egidi, J. Goings, B. Peng, A. Petrone, 
 T. Henderson, D. Ranasinghe, V. G. Zakrzewski, J. Gao, N. Rega, 
 G. Zheng, W. Liang, M. Hada, M. Ehara, K. Toyota, R. Fukuda, 
 J. Hasegawa, M. Ishida, T. Nakajima, Y. Honda, O. Kitao, H. Nakai, 
 T. Vreven, K. Throssell, J. A. Montgomery, Jr., J. E. Peralta, 
 F. Ogliaro, M. J. Bearpark, J. J. Heyd, E. N. Brothers, K. N. Kudin, 
 V. N. Staroverov, T. A. Keith, R. Kobayashi, J. Normand, 
 K. Raghavachari, A. P. Rendell, J. C. Burant, S. S. Iyengar, 
 J. Tomasi, M. Cossi, J. M. Millam, M. Klene, C. Adamo, R. Cammi, 
 J. W. Ochterski, R. L. Martin, K. Morokuma, O. Farkas, 
 J. B. Foresman, and D. J. Fox, Gaussian, Inc., Wallingford CT, 2019.
 
 ******************************************
 Gaussian 16:  ES64L-G16RevC.01  3-Jul-2019
                18-Mar-2024 
 ******************************************
 %chk=Azulene_6-31Gs_1-1.chk
 %NProcShared=128
 Will use up to  128 processors via shared memory.
 %Mem=900GB
 ----------------------------------------------
 #p CAM-B3LYP/6-31G* geom=connectivity opt freq
 ----------------------------------------------
 1/18=20,19=15,26=3,38=1,57=2/1,3;
 2/9=110,12=2,17=6,18=5,40=1/2;
 3/5=1,6=6,7=1,11=2,25=1,30=1,71=1,74=-40/1,2,3;
 4//1;
 5/5=2,38=5/2;
 6/7=2,8=2,9=2,10=2,28=1/1;
 7//1,2,3,16;
 1/18=20,19=15,26=3/3(2);
 2/9=110/2;
 99//99;
 2/9=110/2;
 3/5=1,6=6,7=1,11=2,25=1,30=1,71=1,74=-40/1,2,3;
 4/5=5,16=3,69=1/1;
 5/5=2,38=5/2;
 7//1,2,3,16;
 1/18=20,19=15,26=3/3(-5);
 2/9=110/2;
 6/7=2,8=2,9=2,10=2,19=2,28=1/1;
 99/9=1/99;
 Leave Link    1 at Mon Mar 18 23:21:16 2024, MaxMem=120795955200 cpu:               2.5 elap:               0.0
 (Enter /apps/gaussian/g16-c01-avx2/g16/l101.exe)
 ----------------------------------------------------------------------
 Investigation of Azulene step 1: ground state optimization and frequen
 cy calculation.
 ----------------------------------------------------------------------
 Symbolic Z-matrix:
 Charge =  0 Multiplicity = 1
 C                    -1.58497   0.6383   -0.02075 
 C                    -0.22424   0.6383   -0.02075 
 C                     0.66448   1.74038  -0.02075 
 C                    -2.48977   1.72722  -0.01994 
 C                     0.35715   3.06166  -0.02048 
 C                    -2.22894   3.06186  -0.01906 
 C                    -0.97676   3.71267  -0.01939 
 H                    -2.07565  -0.35732  -0.02133 
 H                     0.27378  -0.35184  -0.02109 
 H                     1.74174   1.475    -0.02116 
 H                    -3.55811   1.4315   -0.01984 
 H                    -3.10188   3.74703  -0.01817 
 C                     1.32864   4.14823  -0.02082 
 H                     2.40548   3.99499  -0.02181 
 C                     0.64868   5.34989  -0.01983 
 H                     1.08552   6.34769  -0.01977 
 C                    -0.77224   5.0894   -0.01894 
 H                    -1.54128   5.85866  -0.018 
 
 ITRead=  0  0  0  0  0  0  0  0  0  0  0  0  0  0  0  0  0  0
 MicOpt= -1 -1 -1 -1 -1 -1 -1 -1 -1 -1 -1 -1 -1 -1 -1 -1 -1 -1
 NAtoms=     18 NQM=       18 NQMF=       0 NMMI=      0 NMMIF=      0
                NMic=       0 NMicF=      0.
                    Isotopes and Nuclear Properties:
 (Nuclear quadrupole moments (NQMom) in fm**2, nuclear magnetic moments (NMagM)
  in nuclear magnetons)

  Atom         1           2           3           4           5           6           7           8           9          10
 IAtWgt=          12          12          12          12          12          12          12           1           1           1
 AtmWgt=  12.0000000  12.0000000  12.0000000  12.0000000  12.0000000  12.0000000  12.0000000   1.0078250   1.0078250   1.0078250
 NucSpn=           0           0           0           0           0           0           0           1           1           1
 AtZEff=  -0.0000000  -0.0000000  -0.0000000  -0.0000000  -0.0000000  -0.0000000  -0.0000000  -0.0000000  -0.0000000  -0.0000000
 NQMom=    0.0000000   0.0000000   0.0000000   0.0000000   0.0000000   0.0000000   0.0000000   0.0000000   0.0000000   0.0000000
 NMagM=    0.0000000   0.0000000   0.0000000   0.0000000   0.0000000   0.0000000   0.0000000   2.7928460   2.7928460   2.7928460
 AtZNuc=   6.0000000   6.0000000   6.0000000   6.0000000   6.0000000   6.0000000   6.0000000   1.0000000   1.0000000   1.0000000

  Atom        11          12          13          14          15          16          17          18
 IAtWgt=           1           1          12           1          12           1          12           1
 AtmWgt=   1.0078250   1.0078250  12.0000000   1.0078250  12.0000000   1.0078250  12.0000000   1.0078250
 NucSpn=           1           1           0           1           0           1           0           1
 AtZEff=  -0.0000000  -0.0000000  -0.0000000  -0.0000000  -0.0000000  -0.0000000  -0.0000000  -0.0000000
 NQMom=    0.0000000   0.0000000   0.0000000   0.0000000   0.0000000   0.0000000   0.0000000   0.0000000
 NMagM=    2.7928460   2.7928460   0.0000000   2.7928460   0.0000000   2.7928460   0.0000000   2.7928460
 AtZNuc=   1.0000000   1.0000000   6.0000000   1.0000000   6.0000000   1.0000000   6.0000000   1.0000000
 Leave Link  101 at Mon Mar 18 23:21:17 2024, MaxMem=120795955200 cpu:              19.2 elap:               0.2
 (Enter /apps/gaussian/g16-c01-avx2/g16/l103.exe)

 GradGradGradGradGradGradGradGradGradGradGradGradGradGradGradGradGradGrad
 Berny optimization.
 Initialization pass.
                           ----------------------------
                           !    Initial Parameters    !
                           ! (Angstroms and Degrees)  !
 --------------------------                            --------------------------
 ! Name  Definition              Value          Derivative Info.                !
 --------------------------------------------------------------------------------
 ! R1    R(1,2)                  1.3607         estimate D2E/DX2                !
 ! R2    R(1,4)                  1.4158         estimate D2E/DX2                !
 ! R3    R(1,8)                  1.11           estimate D2E/DX2                !
 ! R4    R(2,3)                  1.4158         estimate D2E/DX2                !
 ! R5    R(2,9)                  1.1083         estimate D2E/DX2                !
 ! R6    R(3,5)                  1.3565         estimate D2E/DX2                !
 ! R7    R(3,10)                 1.1095         estimate D2E/DX2                !
 ! R8    R(4,6)                  1.3599         estimate D2E/DX2                !
 ! R9    R(4,11)                 1.1085         estimate D2E/DX2                !
 ! R10   R(5,7)                  1.4843         estimate D2E/DX2                !
 ! R11   R(5,13)                 1.4575         estimate D2E/DX2                !
 ! R12   R(6,7)                  1.4112         estimate D2E/DX2                !
 ! R13   R(6,12)                 1.1097         estimate D2E/DX2                !
 ! R14   R(7,17)                 1.3918         estimate D2E/DX2                !
 ! R15   R(13,14)                1.0877         estimate D2E/DX2                !
 ! R16   R(13,15)                1.3807         estimate D2E/DX2                !
 ! R17   R(15,16)                1.0892         estimate D2E/DX2                !
 ! R18   R(15,17)                1.4446         estimate D2E/DX2                !
 ! R19   R(17,18)                1.0877         estimate D2E/DX2                !
 ! A1    A(2,1,4)              129.7237         estimate D2E/DX2                !
 ! A2    A(2,1,8)              116.2359         estimate D2E/DX2                !
 ! A3    A(4,1,8)              114.0405         estimate D2E/DX2                !
 ! A4    A(1,2,3)              128.8828         estimate D2E/DX2                !
 ! A5    A(1,2,9)              116.7012         estimate D2E/DX2                !
 ! A6    A(3,2,9)              114.416          estimate D2E/DX2                !
 ! A7    A(2,3,5)              128.0227         estimate D2E/DX2                !
 ! A8    A(2,3,10)             115.0433         estimate D2E/DX2                !
 ! A9    A(5,3,10)             116.934          estimate D2E/DX2                !
 ! A10   A(1,4,6)              129.2184         estimate D2E/DX2                !
 ! A11   A(1,4,11)             114.2518         estimate D2E/DX2                !
 ! A12   A(6,4,11)             116.5297         estimate D2E/DX2                !
 ! A13   A(3,5,7)              129.1091         estimate D2E/DX2                !
 ! A14   A(3,5,13)             125.1058         estimate D2E/DX2                !
 ! A15   A(7,5,13)             105.7851         estimate D2E/DX2                !
 ! A16   A(4,6,7)              128.5204         estimate D2E/DX2                !
 ! A17   A(4,6,12)             117.0702         estimate D2E/DX2                !
 ! A18   A(7,6,12)             114.4094         estimate D2E/DX2                !
 ! A19   A(5,7,6)              126.5229         estimate D2E/DX2                !
 ! A20   A(5,7,17)             107.5648         estimate D2E/DX2                !
 ! A21   A(6,7,17)             125.9123         estimate D2E/DX2                !
 ! A22   A(5,13,14)            123.7007         estimate D2E/DX2                !
 ! A23   A(5,13,15)            108.6969         estimate D2E/DX2                !
 ! A24   A(14,13,15)           127.6024         estimate D2E/DX2                !
 ! A25   A(13,15,16)           126.8525         estimate D2E/DX2                !
 ! A26   A(13,15,17)           109.115          estimate D2E/DX2                !
 ! A27   A(16,15,17)           124.0325         estimate D2E/DX2                !
 ! A28   A(7,17,15)            108.8383         estimate D2E/DX2                !
 ! A29   A(7,17,18)            126.5577         estimate D2E/DX2                !
 ! A30   A(15,17,18)           124.604          estimate D2E/DX2                !
 ! D1    D(4,1,2,3)             -0.0424         estimate D2E/DX2                !
 ! D2    D(4,1,2,9)            179.9772         estimate D2E/DX2                !
 ! D3    D(8,1,2,3)            179.9667         estimate D2E/DX2                !
 ! D4    D(8,1,2,9)             -0.0138         estimate D2E/DX2                !
 ! D5    D(2,1,4,6)              0.0054         estimate D2E/DX2                !
 ! D6    D(2,1,4,11)          -179.9819         estimate D2E/DX2                !
 ! D7    D(8,1,4,6)            179.9965         estimate D2E/DX2                !
 ! D8    D(8,1,4,11)             0.0092         estimate D2E/DX2                !
 ! D9    D(1,2,3,5)              0.0145         estimate D2E/DX2                !
 ! D10   D(1,2,3,10)          -179.9765         estimate D2E/DX2                !
 ! D11   D(9,2,3,5)            179.9953         estimate D2E/DX2                !
 ! D12   D(9,2,3,10)             0.0044         estimate D2E/DX2                !
 ! D13   D(2,3,5,7)              0.036          estimate D2E/DX2                !
 ! D14   D(2,3,5,13)          -179.9847         estimate D2E/DX2                !
 ! D15   D(10,3,5,7)          -179.9732         estimate D2E/DX2                !
 ! D16   D(10,3,5,13)            0.0061         estimate D2E/DX2                !
 ! D17   D(1,4,6,7)              0.0355         estimate D2E/DX2                !
 ! D18   D(1,4,6,12)          -179.9796         estimate D2E/DX2                !
 ! D19   D(11,4,6,7)          -179.9775         estimate D2E/DX2                !
 ! D20   D(11,4,6,12)            0.0074         estimate D2E/DX2                !
 ! D21   D(3,5,7,6)             -0.0338         estimate D2E/DX2                !
 ! D22   D(3,5,7,17)           179.9743         estimate D2E/DX2                !
 ! D23   D(13,5,7,6)           179.9838         estimate D2E/DX2                !
 ! D24   D(13,5,7,17)           -0.0082         estimate D2E/DX2                !
 ! D25   D(3,5,13,14)            0.0309         estimate D2E/DX2                !
 ! D26   D(3,5,13,15)         -179.9755         estimate D2E/DX2                !
 ! D27   D(7,5,13,14)         -179.9858         estimate D2E/DX2                !
 ! D28   D(7,5,13,15)            0.0078         estimate D2E/DX2                !
 ! D29   D(4,6,7,5)             -0.0162         estimate D2E/DX2                !
 ! D30   D(4,6,7,17)           179.9742         estimate D2E/DX2                !
 ! D31   D(12,6,7,5)           179.9985         estimate D2E/DX2                !
 ! D32   D(12,6,7,17)           -0.011          estimate D2E/DX2                !
 ! D33   D(5,7,17,15)            0.0056         estimate D2E/DX2                !
 ! D34   D(5,7,17,18)         -179.9909         estimate D2E/DX2                !
 ! D35   D(6,7,17,15)         -179.9864         estimate D2E/DX2                !
 ! D36   D(6,7,17,18)            0.0171         estimate D2E/DX2                !
 ! D37   D(5,13,15,16)         179.9991         estimate D2E/DX2                !
 ! D38   D(5,13,15,17)          -0.0046         estimate D2E/DX2                !
 ! D39   D(14,13,15,16)         -0.0075         estimate D2E/DX2                !
 ! D40   D(14,13,15,17)        179.9887         estimate D2E/DX2                !
 ! D41   D(13,15,17,7)          -0.0007         estimate D2E/DX2                !
 ! D42   D(13,15,17,18)        179.9959         estimate D2E/DX2                !
 ! D43   D(16,15,17,7)         179.9957         estimate D2E/DX2                !
 ! D44   D(16,15,17,18)         -0.0077         estimate D2E/DX2                !
 --------------------------------------------------------------------------------
 Trust Radius=3.00D-01 FncErr=1.00D-07 GrdErr=1.00D-06 EigMax=2.50D+02 EigMin=1.00D-04
 Number of steps in this run=    103 maximum allowed number of steps=    108.
 GradGradGradGradGradGradGradGradGradGradGradGradGradGradGradGradGradGrad

 Leave Link  103 at Mon Mar 18 23:21:17 2024, MaxMem=120795955200 cpu:               2.8 elap:               0.0
 (Enter /apps/gaussian/g16-c01-avx2/g16/l202.exe)
                          Input orientation:                          
 ---------------------------------------------------------------------
 Center     Atomic      Atomic             Coordinates (Angstroms)
 Number     Number       Type             X           Y           Z
 ---------------------------------------------------------------------
      1          6           0       -1.584971    0.638298   -0.020748
      2          6           0       -0.224241    0.638298   -0.020748
      3          6           0        0.664484    1.740385   -0.020748
      4          6           0       -2.489770    1.727218   -0.019943
      5          6           0        0.357148    3.061658   -0.020478
      6          6           0       -2.228941    3.061865   -0.019055
      7          6           0       -0.976758    3.712669   -0.019388
      8          1           0       -2.075649   -0.357317   -0.021327
      9          1           0        0.273775   -0.351843   -0.021086
     10          1           0        1.741744    1.474997   -0.021161
     11          1           0       -3.558115    1.431505   -0.019842
     12          1           0       -3.101879    3.747028   -0.018174
     13          6           0        1.328641    4.148226   -0.020816
     14          1           0        2.405477    3.994990   -0.021811
     15          6           0        0.648675    5.349895   -0.019828
     16          1           0        1.085516    6.347691   -0.019772
     17          6           0       -0.772236    5.089405   -0.018935
     18          1           0       -1.541284    5.858656   -0.018003
 ---------------------------------------------------------------------
                    Distance matrix (angstroms):
                    1          2          3          4          5
     1  C    0.000000
     2  C    1.360730   0.000000
     3  C    2.504924   1.415778   0.000000
     4  C    1.415771   2.513637   3.154282   0.000000
     5  C    3.105560   2.492125   1.356546   3.144149   0.000000
     6  C    2.507664   3.145235   3.180915   1.359895   2.586089
     7  C    3.133956   3.165129   2.565849   2.496241   1.484292
     8  H    1.109961   2.102133   3.450896   2.125273   4.196176
     9  H    2.106019   1.108332   2.128396   3.458277   3.414519
    10  H    3.430320   2.136624   1.109468   4.239024   2.105849
    11  H    2.126611   3.426937   4.233881   1.108516   4.241071
    12  H    3.459078   4.236155   4.267565   2.110524   3.526274
    13  C    4.561659   3.838103   2.497760   4.521232   1.457542
    14  H    5.214505   4.264129   2.848561   5.395020   2.250947
    15  C    5.214242   4.791777   3.609545   4.793081   2.306733
    16  H    6.303068   5.857699   4.626504   5.842212   3.365789
    17  C    4.524698   4.484714   3.644188   3.775477   2.321049
    18  H    5.220542   5.383934   4.671785   4.238916   3.380421
                    6          7          8          9         10
     6  C    0.000000
     7  C    1.411208   0.000000
     8  H    3.422617   4.215727   0.000000
     9  H    4.232847   4.252540   2.349430   0.000000
    10  H    4.276037   3.520999   4.234367   2.343561   0.000000
    11  H    2.103516   3.444868   2.323272   4.226549   5.300038
    12  H    1.109716   2.125399   4.230698   5.309971   5.350030
    13  C    3.719754   2.346183   5.647044   4.622052   2.704960
    14  H    4.727426   3.393998   6.246845   4.841396   2.605937
    15  C    3.676378   2.307063   6.324098   5.714050   4.026119
    16  H    4.667149   3.346090   7.412833   6.748532   4.916684
    17  C    2.496579   1.391845   5.600506   5.540877   4.402732
    18  H    2.880089   2.218998   6.238900   6.470297   5.476746
                   11         12         13         14         15
    11  H    0.000000
    12  H    2.360043   0.000000
    13  C    5.591150   4.448649   0.000000
    14  H    6.491216   5.512936   1.087685   0.000000
    15  C    5.748988   4.078706   1.380711   2.218586   0.000000
    16  H    6.762558   4.929273   2.212862   2.697685   1.089232
    17  C    4.597973   2.688720   2.302066   3.360895   1.444591
    18  H    4.864903   2.625725   3.340965   4.364652   2.248280
                   16         17         18
    16  H    0.000000
    17  C    2.243775   0.000000
    18  H    2.671935   1.087742   0.000000
 Stoichiometry    C10H8
 Framework group  C1[X(C10H8)]
 Deg. of freedom    48
 Full point group                 C1      NOp   1
 Largest Abelian subgroup         C1      NOp   1
 Largest concise Abelian subgroup C1      NOp   1
                         Standard orientation:                         
 ---------------------------------------------------------------------
 Center     Atomic      Atomic             Coordinates (Angstroms)
 Number     Number       Type             X           Y           Z
 ---------------------------------------------------------------------
      1          6           0        2.492270   -0.037614    0.000299
      2          6           0        1.900978   -1.263159   -0.000313
      3          6           0        0.522194   -1.584690   -0.000302
      4          6           0        1.904703    1.250475    0.000307
      5          6           0       -0.534264   -0.733741    0.000059
      6          6           0        0.589309    1.595517   -0.000201
      7          6           0       -0.540963    0.750536   -0.000188
      8          1           0        3.602193   -0.028319    0.000728
      9          1           0        2.576343   -2.141954   -0.000568
     10          1           0        0.293104   -2.670249   -0.000472
     11          1           0        2.635277    2.084183    0.000576
     12          1           0        0.351542    2.679462   -0.000434
     13          6           0       -1.935037   -1.136561    0.000365
     14          1           0       -2.264953   -2.173004    0.000819
     15          6           0       -2.721850   -0.001974    0.000131
     16          1           0       -3.810342    0.038167    0.000250
     17          6           0       -1.869796    1.164580   -0.000220
     18          1           0       -2.228442    2.191496   -0.000520
 ---------------------------------------------------------------------
 Rotational constants (GHZ):           2.8611931           1.2528776           0.8713328
 Leave Link  202 at Mon Mar 18 23:21:18 2024, MaxMem=120795955200 cpu:               3.6 elap:               0.1
 (Enter /apps/gaussian/g16-c01-avx2/g16/l301.exe)
 Standard basis: 6-31G(d) (6D, 7F)
 Ernie: Thresh=  0.10000D-02 Tol=  0.10000D-05 Strict=F.
 There are   166 symmetry adapted cartesian basis functions of A   symmetry.
 There are   166 symmetry adapted basis functions of A   symmetry.
   166 basis functions,   312 primitive gaussians,   166 cartesian basis functions
    34 alpha electrons       34 beta electrons
       nuclear repulsion energy       453.5602689767 Hartrees.
 IExCor=20419 DFT=T Ex+Corr=CAM-B3LYP ExCW=0 ScaHFX=  1.000000
 ScaDFX=  1.000000  1.000000  1.000000  0.810000 ScalE2=  1.000000  1.000000
 IRadAn=      5 IRanWt=     -1 IRanGd=            0 ICorTp=0 IEmpDi=  4
 HFx  wShort=  0.000000 wLong=  0.330000 cFull=  0.190000 cShort=  0.000000 cLong=  0.460000
 DFx  wShort=  0.000000 wLong=  0.330000 cFull=  0.190000 cShort=  0.000000 cLong=  0.460000
 NAtoms=   18 NActive=   18 NUniq=   18 SFac= 1.00D+00 NAtFMM=   60 NAOKFM=F Big=F
 Integral buffers will be    131072 words long.
 Raffenetti 2 integral format.
 Two-electron integral symmetry is turned on.
 Leave Link  301 at Mon Mar 18 23:21:18 2024, MaxMem=120795955200 cpu:               4.4 elap:               0.1
 (Enter /apps/gaussian/g16-c01-avx2/g16/l302.exe)
 NPDir=0 NMtPBC=     1 NCelOv=     1 NCel=       1 NClECP=     1 NCelD=      1
         NCelK=      1 NCelE2=     1 NClLst=     1 CellRange=     0.0.
 One-electron integrals computed using PRISM.
 One-electron integral symmetry used in STVInt
 NBasis=   166 RedAO= T EigKep=  7.59D-04  NBF=   166
 NBsUse=   166 1.00D-06 EigRej= -1.00D+00 NBFU=   166
 Precomputing XC quadrature grid using
 IXCGrd= 4 IRadAn=           5 IRanWt=          -1 IRanGd=           0 AccXCQ= 0.00D+00.
 Generated NRdTot=       0 NPtTot=           0 NUsed=           0 NTot=          32
 NSgBfM=   166   166   166   166   166 MxSgAt=    18 MxSgA2=    18.
 Leave Link  302 at Mon Mar 18 23:21:19 2024, MaxMem=120795955200 cpu:              22.7 elap:               0.2
 (Enter /apps/gaussian/g16-c01-avx2/g16/l303.exe)
 DipDrv:  MaxL=1.
 Leave Link  303 at Mon Mar 18 23:21:20 2024, MaxMem=120795955200 cpu:               2.8 elap:               0.0
 (Enter /apps/gaussian/g16-c01-avx2/g16/l401.exe)
 ExpMin= 1.61D-01 ExpMax= 3.05D+03 ExpMxC= 4.57D+02 IAcc=3 IRadAn=         5 AccDes= 0.00D+00
 Harris functional with IExCor=20419 and IRadAn=       5 diagonalized for initial guess.
 HarFok:  IExCor=20419 AccDes= 0.00D+00 IRadAn=         5 IDoV= 1 UseB2=F ITyADJ=14
 ICtDFT=  3500011 ScaDFX=  1.000000  1.000000  1.000000  1.000000
 FoFCou: FMM=F IPFlag=           0 FMFlag=      100000 FMFlg1=           0
         NFxFlg=           0 DoJE=T BraDBF=F KetDBF=T FulRan=T
         wScrn=  0.000000 ICntrl=       500 IOpCl=  0 I1Cent=   200000004 NGrid=           0
         NMat0=    1 NMatS0=      1 NMatT0=    0 NMatD0=    1 NMtDS0=    0 NMtDT0=    0
 Petite list used in FoFCou.
 Harris En= -369.768420191943    
 JPrj=0 DoOrth=F DoCkMO=F.
 Leave Link  401 at Mon Mar 18 23:21:21 2024, MaxMem=120795955200 cpu:              52.4 elap:               0.5
 (Enter /apps/gaussian/g16-c01-avx2/g16/l502.exe)
 Integral symmetry usage will be decided dynamically.
 Closed shell SCF:
 Using DIIS extrapolation, IDIIS=  1040.
 NGot=120795955200 LenX=120795876520 LenY=120795848523
 Requested convergence on RMS density matrix=1.00D-08 within 128 cycles.
 Requested convergence on MAX density matrix=1.00D-06.
 Requested convergence on             energy=1.00D-06.
 No special actions if energy rises.
 Fock matrices will be formed incrementally for  20 cycles.
 Integral accuracy reduced to 1.0D-05 until final iterations.

 Cycle   1  Pass 0  IDiag  1:
 FoFJK:  IHMeth= 1 ICntrl=       0 DoSepK=T KAlg= 0 I1Cent=           0 FoldK=F
 IRaf=         1 NMat=       1 IRICut=       1 DoRegI=T DoRafI=F ISym2E= 0 IDoP0=0 IntGTp=1.
 FoFCou: FMM=F IPFlag=           0 FMFlag=      100000 FMFlg1=           0
         NFxFlg=           0 DoJE=T BraDBF=F KetDBF=F FulRan=T
         wScrn=  0.000000 ICntrl=       500 IOpCl=  0 I1Cent=           0 NGrid=           0
         NMat0=    1 NMatS0=      1 NMatT0=    0 NMatD0=    1 NMtDS0=    0 NMtDT0=    0
 Symmetry not used in FoFCou.
 E= -385.519113420708    
 DIIS: error= 6.16D-02 at cycle   1 NSaved=   1.
 NSaved= 1 IEnMin= 1 EnMin= -385.519113420708     IErMin= 1 ErrMin= 6.16D-02
 ErrMax= 6.16D-02  0.00D+00 EMaxC= 1.00D-01 BMatC= 2.81D-01 BMatP= 2.81D-01
 IDIUse=3 WtCom= 3.84D-01 WtEn= 6.16D-01
 Coeff-Com:  0.100D+01
 Coeff-En:   0.100D+01
 Coeff:      0.100D+01
 Gap=     0.191 Goal=   None    Shift=    0.000
 GapD=    0.191 DampG=1.000 DampE=0.500 DampFc=0.5000 IDamp=-1.
 Damping current iteration by 5.00D-01
 RMSDP=2.93D-03 MaxDP=4.35D-02              OVMax= 8.58D-02

 Cycle   2  Pass 0  IDiag  1:
 RMSU=  1.46D-03    CP:  9.94D-01
 E= -385.556259463548     Delta-E=       -0.037146042840 Rises=F Damp=T
 DIIS: error= 3.07D-02 at cycle   2 NSaved=   2.
 NSaved= 2 IEnMin= 2 EnMin= -385.556259463548     IErMin= 2 ErrMin= 3.07D-02
 ErrMax= 3.07D-02  0.00D+00 EMaxC= 1.00D-01 BMatC= 6.61D-02 BMatP= 2.81D-01
 IDIUse=3 WtCom= 6.93D-01 WtEn= 3.07D-01
 Coeff-Com: -0.782D+00 0.178D+01
 Coeff-En:   0.000D+00 0.100D+01
 Coeff:     -0.542D+00 0.154D+01
 Gap=     0.224 Goal=   None    Shift=    0.000
 RMSDP=1.78D-03 MaxDP=2.71D-02 DE=-3.71D-02 OVMax= 8.03D-02

 Cycle   3  Pass 0  IDiag  1:
 RMSU=  1.58D-03    CP:  9.82D-01  1.53D+00
 E= -385.583734186422     Delta-E=       -0.027474722874 Rises=F Damp=F
 DIIS: error= 9.16D-03 at cycle   3 NSaved=   3.
 NSaved= 3 IEnMin= 3 EnMin= -385.583734186422     IErMin= 3 ErrMin= 9.16D-03
 ErrMax= 9.16D-03  0.00D+00 EMaxC= 1.00D-01 BMatC= 8.32D-03 BMatP= 6.61D-02
 IDIUse=3 WtCom= 9.08D-01 WtEn= 9.16D-02
 Coeff-Com: -0.379D+00 0.789D+00 0.591D+00
 Coeff-En:   0.000D+00 0.000D+00 0.100D+01
 Coeff:     -0.345D+00 0.717D+00 0.628D+00
 Gap=     0.208 Goal=   None    Shift=    0.000
 RMSDP=7.96D-04 MaxDP=2.01D-02 DE=-2.75D-02 OVMax= 5.61D-02

 Cycle   4  Pass 0  IDiag  1:
 RMSU=  4.67D-04    CP:  9.82D-01  1.77D+00  6.61D-01
 E= -385.591444369542     Delta-E=       -0.007710183120 Rises=F Damp=F
 DIIS: error= 4.51D-03 at cycle   4 NSaved=   4.
 NSaved= 4 IEnMin= 4 EnMin= -385.591444369542     IErMin= 4 ErrMin= 4.51D-03
 ErrMax= 4.51D-03  0.00D+00 EMaxC= 1.00D-01 BMatC= 1.36D-03 BMatP= 8.32D-03
 IDIUse=3 WtCom= 9.55D-01 WtEn= 4.51D-02
 Coeff-Com: -0.169D+00 0.347D+00 0.365D+00 0.456D+00
 Coeff-En:   0.000D+00 0.000D+00 0.115D+00 0.885D+00
 Coeff:     -0.161D+00 0.332D+00 0.354D+00 0.476D+00
 Gap=     0.211 Goal=   None    Shift=    0.000
 RMSDP=2.65D-04 MaxDP=4.60D-03 DE=-7.71D-03 OVMax= 1.80D-02

 Cycle   5  Pass 0  IDiag  1:
 RMSU=  9.34D-05    CP:  9.81D-01  1.74D+00  7.41D-01  5.57D-01
 E= -385.593012747555     Delta-E=       -0.001568378013 Rises=F Damp=F
 DIIS: error= 3.65D-04 at cycle   5 NSaved=   5.
 NSaved= 5 IEnMin= 5 EnMin= -385.593012747555     IErMin= 5 ErrMin= 3.65D-04
 ErrMax= 3.65D-04  0.00D+00 EMaxC= 1.00D-01 BMatC= 1.15D-05 BMatP= 1.36D-03
 IDIUse=3 WtCom= 9.96D-01 WtEn= 3.65D-03
 Coeff-Com: -0.124D-01 0.252D-01 0.290D-01 0.987D-01 0.860D+00
 Coeff-En:   0.000D+00 0.000D+00 0.000D+00 0.000D+00 0.100D+01
 Coeff:     -0.124D-01 0.251D-01 0.289D-01 0.984D-01 0.860D+00
 Gap=     0.211 Goal=   None    Shift=    0.000
 RMSDP=3.96D-05 MaxDP=6.67D-04 DE=-1.57D-03 OVMax= 3.34D-03

 Cycle   6  Pass 0  IDiag  1:
 RMSU=  2.78D-05    CP:  9.81D-01  1.75D+00  7.42D-01  6.09D-01  1.04D+00
 E= -385.593035818277     Delta-E=       -0.000023070722 Rises=F Damp=F
 DIIS: error= 2.01D-04 at cycle   6 NSaved=   6.
 NSaved= 6 IEnMin= 6 EnMin= -385.593035818277     IErMin= 6 ErrMin= 2.01D-04
 ErrMax= 2.01D-04  0.00D+00 EMaxC= 1.00D-01 BMatC= 2.73D-06 BMatP= 1.15D-05
 IDIUse=3 WtCom= 9.98D-01 WtEn= 2.01D-03
 Coeff-Com:  0.185D-01-0.383D-01-0.392D-01-0.217D-01 0.410D+00 0.670D+00
 Coeff-En:   0.000D+00 0.000D+00 0.000D+00 0.000D+00 0.000D+00 0.100D+01
 Coeff:      0.184D-01-0.382D-01-0.391D-01-0.217D-01 0.410D+00 0.671D+00
 Gap=     0.211 Goal=   None    Shift=    0.000
 RMSDP=2.01D-05 MaxDP=3.05D-04 DE=-2.31D-05 OVMax= 2.14D-03

 Cycle   7  Pass 0  IDiag  1:
 RMSU=  1.54D-05    CP:  9.81D-01  1.75D+00  7.46D-01  6.17D-01  1.15D+00
                    CP:  1.09D+00
 E= -385.593043186758     Delta-E=       -0.000007368481 Rises=F Damp=F
 DIIS: error= 1.16D-04 at cycle   7 NSaved=   7.
 NSaved= 7 IEnMin= 7 EnMin= -385.593043186758     IErMin= 7 ErrMin= 1.16D-04
 ErrMax= 1.16D-04  0.00D+00 EMaxC= 1.00D-01 BMatC= 3.64D-07 BMatP= 2.73D-06
 IDIUse=3 WtCom= 9.99D-01 WtEn= 1.16D-03
 Coeff-Com:  0.408D-02-0.837D-02-0.826D-02-0.207D-01-0.104D+00 0.110D+00
 Coeff-Com:  0.103D+01
 Coeff-En:   0.000D+00 0.000D+00 0.000D+00 0.000D+00 0.000D+00 0.000D+00
 Coeff-En:   0.100D+01
 Coeff:      0.408D-02-0.836D-02-0.825D-02-0.207D-01-0.104D+00 0.110D+00
 Coeff:      0.103D+01
 Gap=     0.211 Goal=   None    Shift=    0.000
 RMSDP=1.46D-05 MaxDP=2.78D-04 DE=-7.37D-06 OVMax= 1.84D-03

 Cycle   8  Pass 0  IDiag  1:
 RMSU=  5.57D-06    CP:  9.81D-01  1.75D+00  7.47D-01  6.18D-01  1.21D+00
                    CP:  1.47D+00  1.42D+00
 E= -385.593046257373     Delta-E=       -0.000003070615 Rises=F Damp=F
 DIIS: error= 7.18D-05 at cycle   8 NSaved=   8.
 NSaved= 8 IEnMin= 8 EnMin= -385.593046257373     IErMin= 8 ErrMin= 7.18D-05
 ErrMax= 7.18D-05  0.00D+00 EMaxC= 1.00D-01 BMatC= 1.15D-07 BMatP= 3.64D-07
 IDIUse=1 WtCom= 1.00D+00 WtEn= 0.00D+00
 Coeff-Com: -0.488D-02 0.102D-01 0.106D-01-0.623D-03-0.175D+00-0.154D+00
 Coeff-Com:  0.339D+00 0.975D+00
 Coeff:     -0.488D-02 0.102D-01 0.106D-01-0.623D-03-0.175D+00-0.154D+00
 Coeff:      0.339D+00 0.975D+00
 Gap=     0.211 Goal=   None    Shift=    0.000
 RMSDP=1.06D-05 MaxDP=1.87D-04 DE=-3.07D-06 OVMax= 1.44D-03

 Cycle   9  Pass 0  IDiag  1:
 RMSU=  2.69D-06    CP:  9.81D-01  1.75D+00  7.47D-01  6.20D-01  1.24D+00
                    CP:  1.71D+00  1.86D+00  1.29D+00
 E= -385.593047353505     Delta-E=       -0.000001096131 Rises=F Damp=F
 DIIS: error= 2.08D-05 at cycle   9 NSaved=   9.
 NSaved= 9 IEnMin= 9 EnMin= -385.593047353505     IErMin= 9 ErrMin= 2.08D-05
 ErrMax= 2.08D-05  0.00D+00 EMaxC= 1.00D-01 BMatC= 2.81D-08 BMatP= 1.15D-07
 IDIUse=1 WtCom= 1.00D+00 WtEn= 0.00D+00
 Coeff-Com: -0.351D-02 0.727D-02 0.734D-02 0.539D-02-0.550D-01-0.905D-01
 Coeff-Com: -0.156D+00 0.419D+00 0.867D+00
 Coeff:     -0.351D-02 0.727D-02 0.734D-02 0.539D-02-0.550D-01-0.905D-01
 Coeff:     -0.156D+00 0.419D+00 0.867D+00
 Gap=     0.211 Goal=   None    Shift=    0.000
 RMSDP=5.28D-06 MaxDP=9.34D-05 DE=-1.10D-06 OVMax= 6.90D-04

 Initial convergence to 1.0D-05 achieved.  Increase integral accuracy.
 Cycle  10  Pass 1  IDiag  1:
 E= -385.593067103141     Delta-E=       -0.000019749636 Rises=F Damp=F
 DIIS: error= 1.48D-05 at cycle   1 NSaved=   1.
 NSaved= 1 IEnMin= 1 EnMin= -385.593067103141     IErMin= 1 ErrMin= 1.48D-05
 ErrMax= 1.48D-05  0.00D+00 EMaxC= 1.00D-01 BMatC= 2.34D-08 BMatP= 2.34D-08
 IDIUse=1 WtCom= 1.00D+00 WtEn= 0.00D+00
 Coeff-Com:  0.100D+01
 Coeff:      0.100D+01
 Gap=     0.211 Goal=   None    Shift=    0.000
 RMSDP=5.28D-06 MaxDP=9.34D-05 DE=-1.97D-05 OVMax= 5.61D-05

 Cycle  11  Pass 1  IDiag  1:
 RMSU=  5.82D-06    CP:  1.00D+00
 E= -385.593067120076     Delta-E=       -0.000000016935 Rises=F Damp=F
 DIIS: error= 2.90D-06 at cycle   2 NSaved=   2.
 NSaved= 2 IEnMin= 2 EnMin= -385.593067120076     IErMin= 2 ErrMin= 2.90D-06
 ErrMax= 2.90D-06  0.00D+00 EMaxC= 1.00D-01 BMatC= 1.77D-09 BMatP= 2.34D-08
 IDIUse=1 WtCom= 1.00D+00 WtEn= 0.00D+00
 Coeff-Com:  0.812D-01 0.919D+00
 Coeff:      0.812D-01 0.919D+00
 Gap=     0.211 Goal=   None    Shift=    0.000
 RMSDP=6.35D-07 MaxDP=1.27D-05 DE=-1.69D-08 OVMax= 3.33D-05

 Cycle  12  Pass 1  IDiag  1:
 RMSU=  6.03D-07    CP:  1.00D+00  1.03D+00
 E= -385.593067120688     Delta-E=       -0.000000000613 Rises=F Damp=F
 DIIS: error= 4.14D-06 at cycle   3 NSaved=   3.
 NSaved= 3 IEnMin= 3 EnMin= -385.593067120688     IErMin= 2 ErrMin= 2.90D-06
 ErrMax= 4.14D-06  0.00D+00 EMaxC= 1.00D-01 BMatC= 1.94D-09 BMatP= 1.77D-09
 IDIUse=1 WtCom= 1.00D+00 WtEn= 0.00D+00
 Coeff-Com: -0.231D-01 0.518D+00 0.505D+00
 Coeff:     -0.231D-01 0.518D+00 0.505D+00
 Gap=     0.211 Goal=   None    Shift=    0.000
 RMSDP=2.89D-07 MaxDP=6.55D-06 DE=-6.13D-10 OVMax= 1.73D-05

 Cycle  13  Pass 1  IDiag  1:
 RMSU=  1.73D-07    CP:  1.00D+00  1.04D+00  6.34D-01
 E= -385.593067122758     Delta-E=       -0.000000002070 Rises=F Damp=F
 DIIS: error= 1.04D-06 at cycle   4 NSaved=   4.
 NSaved= 4 IEnMin= 4 EnMin= -385.593067122758     IErMin= 4 ErrMin= 1.04D-06
 ErrMax= 1.04D-06  0.00D+00 EMaxC= 1.00D-01 BMatC= 2.70D-11 BMatP= 1.77D-09
 IDIUse=1 WtCom= 1.00D+00 WtEn= 0.00D+00
 Coeff-Com: -0.384D-02-0.577D-02 0.232D-01 0.986D+00
 Coeff:     -0.384D-02-0.577D-02 0.232D-01 0.986D+00
 Gap=     0.211 Goal=   None    Shift=    0.000
 RMSDP=1.10D-07 MaxDP=1.74D-06 DE=-2.07D-09 OVMax= 1.42D-05

 Cycle  14  Pass 1  IDiag  1:
 RMSU=  6.28D-08    CP:  1.00D+00  1.05D+00  7.12D-01  1.45D+00
 E= -385.593067122945     Delta-E=       -0.000000000187 Rises=F Damp=F
 DIIS: error= 7.93D-07 at cycle   5 NSaved=   5.
 NSaved= 5 IEnMin= 5 EnMin= -385.593067122945     IErMin= 5 ErrMin= 7.93D-07
 ErrMax= 7.93D-07  0.00D+00 EMaxC= 1.00D-01 BMatC= 1.52D-11 BMatP= 2.70D-11
 IDIUse=1 WtCom= 1.00D+00 WtEn= 0.00D+00
 Coeff-Com:  0.686D-02-0.197D+00-0.176D+00 0.527D+00 0.839D+00
 Coeff:      0.686D-02-0.197D+00-0.176D+00 0.527D+00 0.839D+00
 Gap=     0.211 Goal=   None    Shift=    0.000
 RMSDP=9.20D-08 MaxDP=1.65D-06 DE=-1.87D-10 OVMax= 1.31D-05

 Cycle  15  Pass 1  IDiag  1:
 RMSU=  3.75D-08    CP:  1.00D+00  1.05D+00  7.53D-01  1.90D+00  1.27D+00
 E= -385.593067123044     Delta-E=       -0.000000000099 Rises=F Damp=F
 DIIS: error= 2.78D-07 at cycle   6 NSaved=   6.
 NSaved= 6 IEnMin= 6 EnMin= -385.593067123044     IErMin= 6 ErrMin= 2.78D-07
 ErrMax= 2.78D-07  0.00D+00 EMaxC= 1.00D-01 BMatC= 2.53D-12 BMatP= 1.52D-11
 IDIUse=1 WtCom= 1.00D+00 WtEn= 0.00D+00
 Coeff-Com:  0.205D-02-0.368D-01-0.373D-01-0.147D+00 0.182D+00 0.104D+01
 Coeff:      0.205D-02-0.368D-01-0.373D-01-0.147D+00 0.182D+00 0.104D+01
 Gap=     0.211 Goal=   None    Shift=    0.000
 RMSDP=5.18D-08 MaxDP=8.98D-07 DE=-9.87D-11 OVMax= 6.98D-06

 Cycle  16  Pass 1  IDiag  1:
 RMSU=  1.59D-08    CP:  1.00D+00  1.05D+00  7.78D-01  2.12D+00  1.67D+00
                    CP:  1.29D+00
 E= -385.593067123070     Delta-E=       -0.000000000026 Rises=F Damp=F
 DIIS: error= 1.07D-07 at cycle   7 NSaved=   7.
 NSaved= 7 IEnMin= 7 EnMin= -385.593067123070     IErMin= 7 ErrMin= 1.07D-07
 ErrMax= 1.07D-07  0.00D+00 EMaxC= 1.00D-01 BMatC= 9.98D-13 BMatP= 2.53D-12
 IDIUse=1 WtCom= 1.00D+00 WtEn= 0.00D+00
 Coeff-Com: -0.579D-03 0.299D-01 0.249D-01-0.218D+00-0.107D+00 0.592D+00
 Coeff-Com:  0.679D+00
 Coeff:     -0.579D-03 0.299D-01 0.249D-01-0.218D+00-0.107D+00 0.592D+00
 Coeff:      0.679D+00
 Gap=     0.211 Goal=   None    Shift=    0.000
 RMSDP=1.94D-08 MaxDP=3.47D-07 DE=-2.59D-11 OVMax= 2.45D-06

 Cycle  17  Pass 1  IDiag  1:
 RMSU=  6.58D-09    CP:  1.00D+00  1.05D+00  7.86D-01  2.19D+00  1.79D+00
                    CP:  1.52D+00  8.11D-01
 E= -385.593067123069     Delta-E=        0.000000000001 Rises=F Damp=F
 DIIS: error= 4.09D-08 at cycle   8 NSaved=   8.
 NSaved= 8 IEnMin= 7 EnMin= -385.593067123070     IErMin= 8 ErrMin= 4.09D-08
 ErrMax= 4.09D-08  0.00D+00 EMaxC= 1.00D-01 BMatC= 8.76D-14 BMatP= 9.98D-13
 IDIUse=1 WtCom= 1.00D+00 WtEn= 0.00D+00
 Coeff-Com: -0.515D-03 0.167D-01 0.151D-01-0.579D-01-0.670D-01 0.682D-01
 Coeff-Com:  0.247D+00 0.779D+00
 Coeff:     -0.515D-03 0.167D-01 0.151D-01-0.579D-01-0.670D-01 0.682D-01
 Coeff:      0.247D+00 0.779D+00
 Gap=     0.211 Goal=   None    Shift=    0.000
 RMSDP=5.03D-09 MaxDP=9.66D-08 DE= 5.68D-13 OVMax= 5.15D-07

 SCF Done:  E(RCAM-B3LYP) =  -385.593067123     A.U. after   17 cycles
            NFock= 17  Conv=0.50D-08     -V/T= 2.0098
 KE= 3.818330477349D+02 PE=-1.799807333217D+03 EE= 5.788209493821D+02
 Leave Link  502 at Mon Mar 18 23:21:29 2024, MaxMem=120795955200 cpu:             968.8 elap:               7.7
 (Enter /apps/gaussian/g16-c01-avx2/g16/l601.exe)
 Copying SCF densities to generalized density rwf, IOpCl= 0 IROHF=0.

 **********************************************************************

            Population analysis using the SCF Density.

 **********************************************************************

 Orbital symmetries:
       Occupied  (A) (A) (A) (A) (A) (A) (A) (A) (A) (A) (A) (A)
                 (A) (A) (A) (A) (A) (A) (A) (A) (A) (A) (A) (A)
                 (A) (A) (A) (A) (A) (A) (A) (A) (A) (A)
       Virtual   (A) (A) (A) (A) (A) (A) (A) (A) (A) (A) (A) (A)
                 (A) (A) (A) (A) (A) (A) (A) (A) (A) (A) (A) (A)
                 (A) (A) (A) (A) (A) (A) (A) (A) (A) (A) (A) (A)
                 (A) (A) (A) (A) (A) (A) (A) (A) (A) (A) (A) (A)
                 (A) (A) (A) (A) (A) (A) (A) (A) (A) (A) (A) (A)
                 (A) (A) (A) (A) (A) (A) (A) (A) (A) (A) (A) (A)
                 (A) (A) (A) (A) (A) (A) (A) (A) (A) (A) (A) (A)
                 (A) (A) (A) (A) (A) (A) (A) (A) (A) (A) (A) (A)
                 (A) (A) (A) (A) (A) (A) (A) (A) (A) (A) (A) (A)
                 (A) (A) (A) (A) (A) (A) (A) (A) (A) (A) (A) (A)
                 (A) (A) (A) (A) (A) (A) (A) (A) (A) (A) (A) (A)
 The electronic state is 1-A.
 Alpha  occ. eigenvalues --  -10.28480 -10.28132 -10.28056 -10.27188 -10.26929
 Alpha  occ. eigenvalues --  -10.26916 -10.26382 -10.25672 -10.24490 -10.24355
 Alpha  occ. eigenvalues --   -0.95108  -0.90221  -0.86663  -0.81377  -0.77537
 Alpha  occ. eigenvalues --   -0.71873  -0.68673  -0.61935  -0.61211  -0.58028
 Alpha  occ. eigenvalues --   -0.56056  -0.51654  -0.51544  -0.46658  -0.45396
 Alpha  occ. eigenvalues --   -0.45334  -0.43757  -0.42585  -0.41408  -0.39064
 Alpha  occ. eigenvalues --   -0.38713  -0.35859  -0.27897  -0.23487
 Alpha virt. eigenvalues --   -0.02354   0.00832   0.12325   0.14307   0.15984
 Alpha virt. eigenvalues --    0.18129   0.19315   0.20219   0.21715   0.21801
 Alpha virt. eigenvalues --    0.22679   0.24891   0.25336   0.27874   0.32743
 Alpha virt. eigenvalues --    0.33414   0.36805   0.39769   0.42213   0.44591
 Alpha virt. eigenvalues --    0.48008   0.50548   0.51747   0.56083   0.57957
 Alpha virt. eigenvalues --    0.60580   0.61981   0.62457   0.62822   0.64606
 Alpha virt. eigenvalues --    0.66384   0.67006   0.67156   0.68217   0.68272
 Alpha virt. eigenvalues --    0.69243   0.70647   0.71527   0.73070   0.73804
 Alpha virt. eigenvalues --    0.75646   0.76281   0.80819   0.86493   0.88091
 Alpha virt. eigenvalues --    0.89319   0.90042   0.90717   0.92016   0.92126
 Alpha virt. eigenvalues --    0.92537   0.93571   0.96642   0.99025   1.03179
 Alpha virt. eigenvalues --    1.07849   1.08092   1.09786   1.10399   1.12934
 Alpha virt. eigenvalues --    1.14185   1.22972   1.24027   1.25760   1.35683
 Alpha virt. eigenvalues --    1.36026   1.36443   1.41022   1.43107   1.45881
 Alpha virt. eigenvalues --    1.45943   1.48918   1.51596   1.54293   1.54589
 Alpha virt. eigenvalues --    1.55474   1.59193   1.63186   1.65918   1.72510
 Alpha virt. eigenvalues --    1.74510   1.81366   1.86051   1.89234   1.92723
 Alpha virt. eigenvalues --    1.96301   1.96818   2.00187   2.00890   2.04635
 Alpha virt. eigenvalues --    2.07301   2.09176   2.12584   2.13557   2.17926
 Alpha virt. eigenvalues --    2.21041   2.24470   2.27609   2.29359   2.31011
 Alpha virt. eigenvalues --    2.35084   2.38525   2.41563   2.44526   2.49972
 Alpha virt. eigenvalues --    2.52708   2.54006   2.59663   2.62005   2.71609
 Alpha virt. eigenvalues --    2.74473   2.79365   2.79758   2.81334   2.81570
 Alpha virt. eigenvalues --    2.89619   2.95212   2.99313   3.11575   3.25610
 Alpha virt. eigenvalues --    3.37887   3.41470   4.11731   4.16378   4.19017
 Alpha virt. eigenvalues --    4.20615   4.23404   4.31841   4.38700   4.55843
 Alpha virt. eigenvalues --    4.70313   4.79279
          Condensed to atoms (all electrons):
               1          2          3          4          5          6
     1  C    4.844993   0.572940  -0.031126   0.494198  -0.015822  -0.032475
     2  C    0.572940   4.900570   0.444819  -0.038602   0.000156  -0.008381
     3  C   -0.031126   0.444819   5.141948  -0.004920   0.473798  -0.031874
     4  C    0.494198  -0.038602  -0.004920   4.907853  -0.009871   0.527835
     5  C   -0.015822   0.000156   0.473798  -0.009871   4.787863  -0.046303
     6  C   -0.032475  -0.008381  -0.031874   0.527835  -0.046303   5.063814
     7  C   -0.012606  -0.007583  -0.057183  -0.002372   0.389263   0.433649
     8  H    0.359506  -0.040404   0.005368  -0.041229  -0.000024   0.005621
     9  H   -0.039983   0.360083  -0.039920   0.005314   0.004876  -0.000037
    10  H    0.005524  -0.045969   0.356680  -0.000035  -0.038522  -0.000269
    11  H   -0.041952   0.005790  -0.000054   0.359924   0.000013  -0.037491
    12  H    0.005335  -0.000048  -0.000319  -0.045805   0.005084   0.357635
    13  C    0.000028   0.005830  -0.090285  -0.000509   0.447983   0.015730
    14  H    0.000003   0.000087  -0.005504  -0.000002  -0.043421  -0.000128
    15  C    0.000006  -0.000210   0.006869  -0.000229  -0.032025   0.005420
    16  H   -0.000000   0.000003  -0.000147   0.000003   0.004351  -0.000104
    17  C    0.000150  -0.000600   0.019383   0.006821  -0.038448  -0.095647
    18  H    0.000005  -0.000003  -0.000180   0.000112   0.004856  -0.004949
               7          8          9         10         11         12
     1  C   -0.012606   0.359506  -0.039983   0.005524  -0.041952   0.005335
     2  C   -0.007583  -0.040404   0.360083  -0.045969   0.005790  -0.000048
     3  C   -0.057183   0.005368  -0.039920   0.356680  -0.000054  -0.000319
     4  C   -0.002372  -0.041229   0.005314  -0.000035   0.359924  -0.045805
     5  C    0.389263  -0.000024   0.004876  -0.038522   0.000013   0.005084
     6  C    0.433649   0.005621  -0.000037  -0.000269  -0.037491   0.357635
     7  C    4.785926  -0.000048  -0.000014   0.004899   0.004439  -0.040817
     8  H   -0.000048   0.585535  -0.008812  -0.000170  -0.008206  -0.000172
     9  H   -0.000014  -0.008812   0.588726  -0.006960  -0.000171   0.000004
    10  H    0.004899  -0.000170  -0.006960   0.581338   0.000002   0.000004
    11  H    0.004439  -0.008206  -0.000171   0.000002   0.590156  -0.008002
    12  H   -0.040817  -0.000172   0.000004   0.000004  -0.008002   0.587125
    13  C   -0.042061   0.000002  -0.000160  -0.009726   0.000001  -0.000083
    14  H    0.005165  -0.000000   0.000000   0.004339  -0.000000   0.000002
    15  C   -0.035119   0.000000   0.000003   0.000141   0.000003   0.000102
    16  H    0.004759   0.000000  -0.000000  -0.000007  -0.000000  -0.000005
    17  C    0.504752   0.000001   0.000000  -0.000068  -0.000180  -0.009517
    18  H   -0.041914  -0.000000  -0.000000   0.000003  -0.000003   0.004188
              13         14         15         16         17         18
     1  C    0.000028   0.000003   0.000006  -0.000000   0.000150   0.000005
     2  C    0.005830   0.000087  -0.000210   0.000003  -0.000600  -0.000003
     3  C   -0.090285  -0.005504   0.006869  -0.000147   0.019383  -0.000180
     4  C   -0.000509  -0.000002  -0.000229   0.000003   0.006821   0.000112
     5  C    0.447983  -0.043421  -0.032025   0.004351  -0.038448   0.004856
     6  C    0.015730  -0.000128   0.005420  -0.000104  -0.095647  -0.004949
     7  C   -0.042061   0.005165  -0.035119   0.004759   0.504752  -0.041914
     8  H    0.000002  -0.000000   0.000000   0.000000   0.000001  -0.000000
     9  H   -0.000160   0.000000   0.000003  -0.000000   0.000000  -0.000000
    10  H   -0.009726   0.004339   0.000141  -0.000007  -0.000068   0.000003
    11  H    0.000001  -0.000000   0.000003  -0.000000  -0.000180  -0.000003
    12  H   -0.000083   0.000002   0.000102  -0.000005  -0.009517   0.004188
    13  C    5.078729   0.365238   0.558157  -0.039156  -0.104462   0.005083
    14  H    0.365238   0.587397  -0.043125  -0.002344   0.004619  -0.000106
    15  C    0.558157  -0.043125   4.886183   0.361573   0.482434  -0.043125
    16  H   -0.039156  -0.002344   0.361573   0.577715  -0.040304  -0.002025
    17  C   -0.104462   0.004619   0.482434  -0.040304   5.128688   0.364149
    18  H    0.005083  -0.000106  -0.043125  -0.002025   0.364149   0.586080
 Mulliken charges:
               1
     1  C   -0.108723
     2  C   -0.148478
     3  C   -0.187354
     4  C   -0.158487
     5  C    0.106194
     6  C   -0.152045
     7  C    0.106867
     8  H    0.143032
     9  H    0.137051
    10  H    0.148796
    11  H    0.135729
    12  H    0.145289
    13  C   -0.190338
    14  H    0.127779
    15  C   -0.147057
    16  H    0.135690
    17  C   -0.221773
    18  H    0.127830
 Sum of Mulliken charges =  -0.00000
 Mulliken charges with hydrogens summed into heavy atoms:
               1
     1  C    0.034309
     2  C   -0.011427
     3  C   -0.038558
     4  C   -0.022758
     5  C    0.106194
     6  C   -0.006757
     7  C    0.106867
    13  C   -0.062559
    15  C   -0.011368
    17  C   -0.093943
 Electronic spatial extent (au):  <R**2>=           1307.0805
 Charge=             -0.0000 electrons
 Dipole moment (field-independent basis, Debye):
    X=              1.2239    Y=             -0.1357    Z=              0.0001  Tot=              1.2314
 Quadrupole moment (field-independent basis, Debye-Ang):
   XX=            -51.4700   YY=            -50.4836   ZZ=            -62.6292
   XY=             -0.2904   XZ=              0.0006   YZ=             -0.0004
 Traceless Quadrupole moment (field-independent basis, Debye-Ang):
   XX=              3.3910   YY=              4.3773   ZZ=             -7.7683
   XY=             -0.2904   XZ=              0.0006   YZ=             -0.0004
 Octapole moment (field-independent basis, Debye-Ang**2):
  XXX=              6.6364  YYY=             -1.2889  ZZZ=             -0.0001  XYY=              2.2908
  XXY=              1.0991  XXZ=              0.0080  XZZ=              1.1471  YZZ=             -0.1128
  YYZ=             -0.0031  XYZ=              0.0062
 Hexadecapole moment (field-independent basis, Debye-Ang**3):
 XXXX=          -1065.7214 YYYY=           -510.3223 ZZZZ=            -65.3765 XXXY=             -1.9037
 XXXZ=              0.0133 YYYX=             -1.5411 YYYZ=             -0.0038 ZZZX=              0.0010
 ZZZY=              0.0002 XXYY=           -270.8721 XXZZ=           -229.6398 YYZZ=           -115.1708
 XXYZ=             -0.0002 YYXZ=             -0.0038 ZZXY=             -0.2461
 N-N= 4.535602689767D+02 E-N=-1.799807331185D+03  KE= 3.818330477349D+02
 No NMR shielding tensors so no spin-rotation constants.
 Leave Link  601 at Mon Mar 18 23:21:30 2024, MaxMem=120795955200 cpu:              16.6 elap:               0.2
 (Enter /apps/gaussian/g16-c01-avx2/g16/l701.exe)
 ... and contract with generalized density number  0.
 Compute integral first derivatives.
 Leave Link  701 at Mon Mar 18 23:21:30 2024, MaxMem=120795955200 cpu:              20.9 elap:               0.2
 (Enter /apps/gaussian/g16-c01-avx2/g16/l702.exe)
 L702 exits ... SP integral derivatives will be done elsewhere.
 Leave Link  702 at Mon Mar 18 23:21:31 2024, MaxMem=120795955200 cpu:               1.8 elap:               0.0
 (Enter /apps/gaussian/g16-c01-avx2/g16/l703.exe)
 Integral derivatives from FoFJK, PRISM(SPDF).
 Compute integral first derivatives, UseDBF=F ICtDFT=           0.
 Calling FoFJK, ICntrl=      2127 FMM=F ISym2X=0 I1Cent= 0 IOpClX= 0 NMat=1 NMatS=1 NMatT=0.
 FoFJK:  IHMeth= 1 ICntrl=    2127 DoSepK=T KAlg= 0 I1Cent=           0 FoldK=F
 IRaf=         1 NMat=       1 IRICut=       1 DoRegI=T DoRafI=F ISym2E= 0 IDoP0=0 IntGTp=1.
 FoFCou: FMM=F IPFlag=           0 FMFlag=      100000 FMFlg1=         800
         NFxFlg=           0 DoJE=F BraDBF=F KetDBF=F FulRan=T
         wScrn=  0.000000 ICntrl=      2527 IOpCl=  0 I1Cent=           0 NGrid=           0
         NMat0=    1 NMatS0=      1 NMatT0=    0 NMatD0=    1 NMtDS0=    0 NMtDT0=    0
 Symmetry not used in FoFCou.
 Leave Link  703 at Mon Mar 18 23:21:32 2024, MaxMem=120795955200 cpu:              96.9 elap:               0.8
 (Enter /apps/gaussian/g16-c01-avx2/g16/l716.exe)
 Dipole        = 4.81532835D-01-5.33729428D-02 2.66612238D-05
 ***** Axes restored to original set *****
 -------------------------------------------------------------------
 Center     Atomic                   Forces (Hartrees/Bohr)
 Number     Number              X              Y              Z
 -------------------------------------------------------------------
      1        6          -0.018743878   -0.010012354    0.000003511
      2        6           0.021386544   -0.013543249   -0.000021413
      3        6           0.009875961   -0.015616556   -0.000010957
      4        6          -0.017552106   -0.017755161    0.000001509
      5        6           0.018224814    0.032766430   -0.000001804
      6        6          -0.003434241    0.021815158    0.000005513
      7        6          -0.004866008    0.010334255    0.000009465
      8        1           0.007502557    0.012225911    0.000015457
      9        1          -0.007431846    0.011606946    0.000000117
     10        1          -0.012862422    0.004773867    0.000003568
     11        1           0.013046882    0.004863974   -0.000000256
     12        1           0.009909207   -0.009269326   -0.000014869
     13        6          -0.010931611   -0.013100017    0.000007430
     14        1          -0.003363582    0.001261129    0.000012936
     15        6          -0.015934538   -0.009370834   -0.000000498
     16        1          -0.000165128   -0.004410109   -0.000002126
     17        6           0.014411038   -0.002500912    0.000000104
     18        1           0.000928358   -0.004069151   -0.000007687
 -------------------------------------------------------------------
 Cartesian Forces:  Max     0.032766430 RMS     0.010487714
 Leave Link  716 at Mon Mar 18 23:21:33 2024, MaxMem=120795955200 cpu:               2.3 elap:               0.0
 (Enter /apps/gaussian/g16-c01-avx2/g16/l103.exe)

 GradGradGradGradGradGradGradGradGradGradGradGradGradGradGradGradGradGrad
 Berny optimization.
 FormGI is forming the generalized inverse of G from B-inverse, IUseBI=4.
 Internal  Forces:  Max     0.024226005 RMS     0.005284503
 Search for a local minimum.
 Step number   1 out of a maximum of  103
 All quantities printed in internal units (Hartrees-Bohrs-Radians)
 RMS Force = .52845D-02 SwitMx=.10000D-02 MixMth= 1
 Mixed Optimization -- RFO/linear search
 Second derivative matrix not updated -- first step.
 ITU=  0
     Eigenvalues ---    0.01469   0.01668   0.01785   0.01826   0.01876
     Eigenvalues ---    0.01886   0.02047   0.02073   0.02138   0.02252
     Eigenvalues ---    0.02264   0.02275   0.02283   0.02413   0.02504
     Eigenvalues ---    0.16000   0.16000   0.16000   0.16000   0.16000
     Eigenvalues ---    0.16000   0.16000   0.16000   0.22000   0.22000
     Eigenvalues ---    0.22201   0.22930   0.24027   0.24743   0.31870
     Eigenvalues ---    0.32604   0.32630   0.32656   0.32758   0.32777
     Eigenvalues ---    0.34902   0.35075   0.35082   0.35322   0.38143
     Eigenvalues ---    0.41508   0.42113   0.43493   0.44222   0.47824
     Eigenvalues ---    0.51219   0.51690   0.53330
 RFO step:  Lambda=-6.97411569D-03 EMin= 1.46869170D-02
 Linear search not attempted -- first point.
 Iteration  1 RMS(Cart)=  0.01476341 RMS(Int)=  0.00007529
 Iteration  2 RMS(Cart)=  0.00010281 RMS(Int)=  0.00000997
 Iteration  3 RMS(Cart)=  0.00000001 RMS(Int)=  0.00000997
 ITry= 1 IFail=0 DXMaxC= 6.44D-02 DCOld= 1.00D+10 DXMaxT= 3.00D-01 DXLimC= 3.00D+00 Rises=F
 Variable       Old X    -DE/DX   Delta X   Delta X   Delta X     New X
                                 (Linear)    (Quad)   (Total)
    R1        2.57141   0.01160   0.00000   0.02195   0.02195   2.59336
    R2        2.67542  -0.00059   0.00000  -0.00112  -0.00112   2.67430
    R3        2.09752  -0.01428   0.00000  -0.04289  -0.04289   2.05463
    R4        2.67543  -0.00086   0.00000  -0.00179  -0.00179   2.67364
    R5        2.09444  -0.01371   0.00000  -0.04095  -0.04095   2.05349
    R6        2.56350   0.01119   0.00000   0.02050   0.02050   2.58400
    R7        2.09659  -0.01363   0.00000  -0.04087  -0.04087   2.05572
    R8        2.56983   0.01240   0.00000   0.02308   0.02308   2.59291
    R9        2.09479  -0.01387   0.00000  -0.04146  -0.04146   2.05333
   R10        2.80490   0.00168   0.00000   0.00560   0.00557   2.81048
   R11        2.75436  -0.02423   0.00000  -0.06348  -0.06348   2.69088
   R12        2.66680  -0.00240   0.00000  -0.00566  -0.00566   2.66114
   R13        2.09706  -0.01352   0.00000  -0.04056  -0.04056   2.05650
   R14        2.63021  -0.01283   0.00000  -0.02667  -0.02669   2.60352
   R15        2.05543  -0.00351   0.00000  -0.00980  -0.00980   2.04562
   R16        2.60917  -0.00621   0.00000  -0.01314  -0.01311   2.59605
   R17        2.05835  -0.00411   0.00000  -0.01153  -0.01153   2.04682
   R18        2.72988  -0.01648   0.00000  -0.04238  -0.04237   2.68751
   R19        2.05553  -0.00353   0.00000  -0.00988  -0.00988   2.04566
    A1        2.26411   0.00025   0.00000   0.00245   0.00245   2.26656
    A2        2.02870  -0.00152   0.00000  -0.00955  -0.00955   2.01915
    A3        1.99038   0.00126   0.00000   0.00709   0.00710   1.99748
    A4        2.24943  -0.00178   0.00000  -0.00661  -0.00661   2.24282
    A5        2.03682  -0.00060   0.00000  -0.00563  -0.00563   2.03119
    A6        1.99694   0.00238   0.00000   0.01223   0.01223   2.00917
    A7        2.23442   0.00247   0.00000   0.01118   0.01118   2.24560
    A8        2.00788   0.00040   0.00000   0.00419   0.00419   2.01208
    A9        2.04088  -0.00287   0.00000  -0.01538  -0.01538   2.02551
   A10        2.25529  -0.00154   0.00000  -0.00622  -0.00623   2.24906
   A11        1.99407   0.00203   0.00000   0.01068   0.01069   2.00476
   A12        2.03383  -0.00049   0.00000  -0.00446  -0.00446   2.02937
   A13        2.25338  -0.00234   0.00000  -0.01067  -0.01067   2.24271
   A14        2.18351   0.00064   0.00000   0.00191   0.00193   2.18544
   A15        1.84630   0.00170   0.00000   0.00876   0.00874   1.85503
   A16        2.24310   0.00157   0.00000   0.00642   0.00641   2.24951
   A17        2.04326  -0.00202   0.00000  -0.01058  -0.01057   2.03269
   A18        1.99682   0.00044   0.00000   0.00416   0.00416   2.00098
   A19        2.20824   0.00136   0.00000   0.00344   0.00346   2.21170
   A20        1.87736  -0.00275   0.00000  -0.00847  -0.00851   1.86885
   A21        2.19758   0.00138   0.00000   0.00503   0.00505   2.20264
   A22        2.15899   0.00183   0.00000   0.00983   0.00982   2.16880
   A23        1.89712  -0.00207   0.00000  -0.01013  -0.01010   1.88702
   A24        2.22708   0.00024   0.00000   0.00029   0.00028   2.22736
   A25        2.21399  -0.00391   0.00000  -0.01843  -0.01845   2.19555
   A26        1.90442   0.00449   0.00000   0.01692   0.01696   1.92137
   A27        2.16478  -0.00058   0.00000   0.00151   0.00149   2.16627
   A28        1.89959  -0.00137   0.00000  -0.00708  -0.00709   1.89250
   A29        2.20885  -0.00159   0.00000  -0.01013  -0.01012   2.19873
   A30        2.17475   0.00297   0.00000   0.01721   0.01721   2.19196
    D1       -0.00074   0.00001   0.00000   0.00036   0.00036  -0.00038
    D2        3.14119   0.00001   0.00000   0.00016   0.00016   3.14135
    D3        3.14101   0.00001   0.00000   0.00030   0.00030   3.14131
    D4       -0.00024   0.00000   0.00000   0.00010   0.00010  -0.00014
    D5        0.00009  -0.00000   0.00000  -0.00006  -0.00006   0.00003
    D6       -3.14128  -0.00000   0.00000  -0.00017  -0.00017  -3.14144
    D7        3.14153  -0.00000   0.00000  -0.00000  -0.00000   3.14153
    D8        0.00016  -0.00000   0.00000  -0.00011  -0.00011   0.00005
    D9        0.00025  -0.00000   0.00000  -0.00013  -0.00013   0.00012
   D10       -3.14118  -0.00001   0.00000  -0.00023  -0.00023  -3.14142
   D11        3.14151   0.00000   0.00000   0.00007   0.00007   3.14158
   D12        0.00008  -0.00000   0.00000  -0.00004  -0.00004   0.00004
   D13        0.00063  -0.00001   0.00000  -0.00026  -0.00026   0.00037
   D14       -3.14132  -0.00001   0.00000  -0.00025  -0.00025  -3.14157
   D15       -3.14112  -0.00000   0.00000  -0.00015  -0.00015  -3.14128
   D16        0.00011  -0.00000   0.00000  -0.00014  -0.00014  -0.00003
   D17        0.00062  -0.00001   0.00000  -0.00030  -0.00030   0.00032
   D18       -3.14124  -0.00000   0.00000  -0.00014  -0.00014  -3.14138
   D19       -3.14120  -0.00001   0.00000  -0.00019  -0.00019  -3.14139
   D20        0.00013  -0.00000   0.00000  -0.00003  -0.00003   0.00010
   D21       -0.00059   0.00000   0.00000   0.00021   0.00021  -0.00038
   D22        3.14114   0.00000   0.00000   0.00022   0.00022   3.14136
   D23        3.14131   0.00000   0.00000   0.00020   0.00020   3.14151
   D24       -0.00014   0.00000   0.00000   0.00021   0.00021   0.00006
   D25        0.00054  -0.00001   0.00000  -0.00023  -0.00023   0.00031
   D26       -3.14117  -0.00001   0.00000  -0.00026  -0.00025  -3.14142
   D27       -3.14135  -0.00001   0.00000  -0.00022  -0.00022  -3.14157
   D28        0.00014  -0.00001   0.00000  -0.00025  -0.00025  -0.00011
   D29       -0.00028   0.00001   0.00000   0.00019   0.00019  -0.00010
   D30        3.14114   0.00001   0.00000   0.00018   0.00018   3.14132
   D31        3.14157   0.00000   0.00000   0.00003   0.00003  -3.14159
   D32       -0.00019   0.00000   0.00000   0.00003   0.00003  -0.00017
   D33        0.00010  -0.00000   0.00000  -0.00009  -0.00009   0.00001
   D34       -3.14143  -0.00000   0.00000  -0.00013  -0.00013  -3.14156
   D35       -3.14136  -0.00000   0.00000  -0.00009  -0.00009  -3.14144
   D36        0.00030  -0.00000   0.00000  -0.00012  -0.00012   0.00017
   D37        3.14158   0.00000   0.00000   0.00008   0.00008  -3.14153
   D38       -0.00008   0.00000   0.00000   0.00020   0.00020   0.00012
   D39       -0.00013   0.00000   0.00000   0.00005   0.00005  -0.00008
   D40        3.14140   0.00000   0.00000   0.00017   0.00017   3.14157
   D41       -0.00001  -0.00000   0.00000  -0.00007  -0.00007  -0.00008
   D42        3.14152  -0.00000   0.00000  -0.00003  -0.00003   3.14149
   D43        3.14152   0.00000   0.00000   0.00005   0.00005   3.14157
   D44       -0.00013   0.00000   0.00000   0.00008   0.00009  -0.00005
         Item               Value     Threshold  Converged?
 Maximum Force            0.024226     0.000450     NO 
 RMS     Force            0.005285     0.000300     NO 
 Maximum Displacement     0.064433     0.001800     NO 
 RMS     Displacement     0.014761     0.001200     NO 
 Predicted change in Energy=-3.556101D-03
 Lowest energy point so far.  Saving SCF results.
 GradGradGradGradGradGradGradGradGradGradGradGradGradGradGradGradGradGrad

 Leave Link  103 at Mon Mar 18 23:21:33 2024, MaxMem=120795955200 cpu:              11.6 elap:               0.2
 (Enter /apps/gaussian/g16-c01-avx2/g16/l202.exe)
                          Input orientation:                          
 ---------------------------------------------------------------------
 Center     Atomic      Atomic             Coordinates (Angstroms)
 Number     Number       Type             X           Y           Z
 ---------------------------------------------------------------------
      1          6           0       -1.587539    0.638793   -0.020627
      2          6           0       -0.215196    0.637470   -0.020954
      3          6           0        0.666705    1.743813   -0.020962
      4          6           0       -2.493578    1.725910   -0.019801
      5          6           0        0.364294    3.077348   -0.020513
      6          6           0       -2.224029    3.071281   -0.019143
      7          6           0       -0.975590    3.722792   -0.019467
      8          1           0       -2.059795   -0.340553   -0.020972
      9          1           0        0.266674   -0.336508   -0.021384
     10          1           0        1.725475    1.494000   -0.021434
     11          1           0       -3.543399    1.445694   -0.019563
     12          1           0       -3.083989    3.738186   -0.018345
     13          6           0        1.317223    4.135442   -0.020579
     14          1           0        2.389849    3.989592   -0.021273
     15          6           0        0.632930    5.326656   -0.019805
     16          1           0        1.079158    6.313595   -0.019708
     17          6           0       -0.768537    5.084867   -0.019060
     18          1           0       -1.539033    5.845244   -0.018279
 ---------------------------------------------------------------------
                    Distance matrix (angstroms):
                    1          2          3          4          5
     1  C    0.000000
     2  C    1.372344   0.000000
     3  C    2.510515   1.414830   0.000000
     4  C    1.415178   2.525021   3.160334   0.000000
     5  C    3.123492   2.507751   1.367395   3.161300   0.000000
     6  C    2.514383   3.155765   3.180963   1.372108   2.588331
     7  C    3.144126   3.177642   2.571671   2.508351   1.487242
     8  H    1.087265   2.087840   3.431965   2.111502   4.190257
     9  H    2.095070   1.086661   2.118434   3.445658   3.415252
    10  H    3.421615   2.121285   1.087842   4.225423   2.088015
    11  H    2.115768   3.424933   4.220646   1.086574   4.234661
    12  H    3.441744   4.224266   4.247969   2.097103   3.511035
    13  C    4.545788   3.818915   2.478520   4.508664   1.423951
    14  H    5.200718   4.245348   2.830680   5.382576   2.221500
    15  C    5.187151   4.765268   3.583002   4.768692   2.265293
    16  H    6.270139   5.821833   4.588357   5.814748   3.314260
    17  C    4.520878   4.481689   3.636285   3.776025   2.305090
    18  H    5.206677   5.373403   4.656933   4.228483   3.359152
                    6          7          8          9         10
     6  C    0.000000
     7  C    1.408214   0.000000
     8  H    3.415786   4.205505   0.000000
     9  H    4.220976   4.245131   2.326472   0.000000
    10  H    4.252812   3.501895   4.206407   2.340697   0.000000
    11  H    2.093626   3.432027   2.322017   4.206293   5.269096
    12  H    1.088252   2.108456   4.205365   5.275422   5.307290
    13  C    3.697689   2.329651   5.607029   4.593690   2.672804
    14  H    4.704378   3.375998   6.208824   4.819027   2.582513
    15  C    3.639908   2.271501   6.274395   5.674995   3.985336
    16  H    4.628568   3.306697   7.357357   6.699552   4.862738
    17  C    2.484550   1.377723   5.576965   5.519328   4.372005
    18  H    2.857287   2.195967   6.207679   6.440081   5.439700
                   11         12         13         14         15
    11  H    0.000000
    12  H    2.338071   0.000000
    13  C    5.555212   4.419104   0.000000
    14  H    6.455606   5.479609   1.082497   0.000000
    15  C    5.701191   4.042119   1.373772   2.207828   0.000000
    16  H    6.713008   4.895357   2.191124   2.668127   1.083129
    17  C    4.576400   2.678595   2.291682   3.342908   1.422171
    18  H    4.834617   2.612773   3.328907   4.345062   2.233015
                   16         17         18
    16  H    0.000000
    17  C    2.218952   0.000000
    18  H    2.659751   1.082514   0.000000
 Stoichiometry    C10H8
 Framework group  C1[X(C10H8)]
 Deg. of freedom    48
 Full point group                 C1      NOp   1
 RotChk:  IX=0 Diff= 1.84D-03
 Largest Abelian subgroup         C1      NOp   1
 Largest concise Abelian subgroup C1      NOp   1
                         Standard orientation:                         
 ---------------------------------------------------------------------
 Center     Atomic      Atomic             Coordinates (Angstroms)
 Number     Number       Type             X           Y           Z
 ---------------------------------------------------------------------
      1          6           0        2.492578   -0.032091    0.000150
      2          6           0        1.899037   -1.269442   -0.000148
      3          6           0        0.519793   -1.584769   -0.000120
      4          6           0        1.905502    1.255570    0.000151
      5          6           0       -0.550953   -0.734315    0.000077
      6          6           0        0.576218    1.595694   -0.000118
      7          6           0       -0.551970    0.752926   -0.000113
      8          1           0        3.579843   -0.030908    0.000337
      9          1           0        2.567973   -2.125805   -0.000309
     10          1           0        0.286088   -2.647210   -0.000226
     11          1           0        2.612999    2.080247    0.000283
     12          1           0        0.347875    2.659720   -0.000270
     13          6           0       -1.917495   -1.134563    0.000112
     14          1           0       -2.250899   -2.164437    0.000262
     15          6           0       -2.694484   -0.001629    0.000103
     16          1           0       -3.777310    0.023934    0.000179
     17          6           0       -1.869225    1.156610   -0.000096
     18          1           0       -2.220578    2.180519   -0.000237
 ---------------------------------------------------------------------
 Rotational constants (GHZ):           2.8656726           1.2628383           0.8765584
 Leave Link  202 at Mon Mar 18 23:21:33 2024, MaxMem=120795955200 cpu:               1.3 elap:               0.0
 (Enter /apps/gaussian/g16-c01-avx2/g16/l301.exe)
 Standard basis: 6-31G(d) (6D, 7F)
 Ernie: Thresh=  0.10000D-02 Tol=  0.10000D-05 Strict=F.
 There are   166 symmetry adapted cartesian basis functions of A   symmetry.
 There are   166 symmetry adapted basis functions of A   symmetry.
   166 basis functions,   312 primitive gaussians,   166 cartesian basis functions
    34 alpha electrons       34 beta electrons
       nuclear repulsion energy       455.1634809622 Hartrees.
 IExCor=20419 DFT=T Ex+Corr=CAM-B3LYP ExCW=0 ScaHFX=  1.000000
 ScaDFX=  1.000000  1.000000  1.000000  0.810000 ScalE2=  1.000000  1.000000
 IRadAn=      5 IRanWt=     -1 IRanGd=            0 ICorTp=0 IEmpDi=  4
 HFx  wShort=  0.000000 wLong=  0.330000 cFull=  0.190000 cShort=  0.000000 cLong=  0.460000
 DFx  wShort=  0.000000 wLong=  0.330000 cFull=  0.190000 cShort=  0.000000 cLong=  0.460000
 NAtoms=   18 NActive=   18 NUniq=   18 SFac= 1.00D+00 NAtFMM=   60 NAOKFM=F Big=F
 Integral buffers will be    131072 words long.
 Raffenetti 2 integral format.
 Two-electron integral symmetry is turned on.
 Leave Link  301 at Mon Mar 18 23:21:33 2024, MaxMem=120795955200 cpu:               3.6 elap:               0.0
 (Enter /apps/gaussian/g16-c01-avx2/g16/l302.exe)
 NPDir=0 NMtPBC=     1 NCelOv=     1 NCel=       1 NClECP=     1 NCelD=      1
         NCelK=      1 NCelE2=     1 NClLst=     1 CellRange=     0.0.
 One-electron integrals computed using PRISM.
 One-electron integral symmetry used in STVInt
 NBasis=   166 RedAO= T EigKep=  7.43D-04  NBF=   166
 NBsUse=   166 1.00D-06 EigRej= -1.00D+00 NBFU=   166
 Precomputing XC quadrature grid using
 IXCGrd= 4 IRadAn=           5 IRanWt=          -1 IRanGd=           0 AccXCQ= 0.00D+00.
 Generated NRdTot=       0 NPtTot=           0 NUsed=           0 NTot=          32
 NSgBfM=   166   166   166   166   166 MxSgAt=    18 MxSgA2=    18.
 Leave Link  302 at Mon Mar 18 23:21:33 2024, MaxMem=120795955200 cpu:              24.8 elap:               0.2
 (Enter /apps/gaussian/g16-c01-avx2/g16/l303.exe)
 DipDrv:  MaxL=1.
 Leave Link  303 at Mon Mar 18 23:21:33 2024, MaxMem=120795955200 cpu:               2.6 elap:               0.0
 (Enter /apps/gaussian/g16-c01-avx2/g16/l401.exe)
 Initial guess from the checkpoint file:  "Azulene_6-31Gs_1-1.chk"
 B after Tr=    -0.000000    0.000000    0.000000
         Rot=    1.000000    0.000000   -0.000000   -0.000620 Ang=   0.07 deg.
 Guess basis will be translated and rotated to current coordinates.
 JPrj=2 DoOrth=T DoCkMO=T.
 Generating alternative initial guess.
 ExpMin= 1.61D-01 ExpMax= 3.05D+03 ExpMxC= 4.57D+02 IAcc=3 IRadAn=         5 AccDes= 0.00D+00
 Harris functional with IExCor=20419 and IRadAn=       5 diagonalized for initial guess.
 HarFok:  IExCor=20419 AccDes= 0.00D+00 IRadAn=         5 IDoV= 1 UseB2=F ITyADJ=14
 ICtDFT=  3500011 ScaDFX=  1.000000  1.000000  1.000000  1.000000
 FoFCou: FMM=F IPFlag=           0 FMFlag=      100000 FMFlg1=           0
         NFxFlg=           0 DoJE=T BraDBF=F KetDBF=T FulRan=T
         wScrn=  0.000000 ICntrl=       500 IOpCl=  0 I1Cent=   200000004 NGrid=           0
         NMat0=    1 NMatS0=      1 NMatT0=    0 NMatD0=    1 NMtDS0=    0 NMtDT0=    0
 Petite list used in FoFCou.
 Harris En= -369.764945545792    
 Leave Link  401 at Mon Mar 18 23:21:34 2024, MaxMem=120795955200 cpu:              37.0 elap:               0.3
 (Enter /apps/gaussian/g16-c01-avx2/g16/l502.exe)
 Integral symmetry usage will be decided dynamically.
 Closed shell SCF:
 Using DIIS extrapolation, IDIIS=  1040.
 NGot=120795955200 LenX=120795876520 LenY=120795848523
 Requested convergence on RMS density matrix=1.00D-08 within 128 cycles.
 Requested convergence on MAX density matrix=1.00D-06.
 Requested convergence on             energy=1.00D-06.
 No special actions if energy rises.
 Fock matrices will be formed incrementally for  20 cycles.
 Integral accuracy reduced to 1.0D-05 until final iterations.

 Cycle   1  Pass 0  IDiag  1:
 FoFJK:  IHMeth= 1 ICntrl=       0 DoSepK=T KAlg= 0 I1Cent=           0 FoldK=F
 IRaf=         1 NMat=       1 IRICut=       1 DoRegI=T DoRafI=F ISym2E= 0 IDoP0=0 IntGTp=1.
 FoFCou: FMM=F IPFlag=           0 FMFlag=      100000 FMFlg1=           0
         NFxFlg=           0 DoJE=T BraDBF=F KetDBF=F FulRan=T
         wScrn=  0.000000 ICntrl=       500 IOpCl=  0 I1Cent=           0 NGrid=           0
         NMat0=    1 NMatS0=      1 NMatT0=    0 NMatD0=    1 NMtDS0=    0 NMtDT0=    0
 Symmetry not used in FoFCou.
 E= -385.595595963220    
 DIIS: error= 1.45D-03 at cycle   1 NSaved=   1.
 NSaved= 1 IEnMin= 1 EnMin= -385.595595963220     IErMin= 1 ErrMin= 1.45D-03
 ErrMax= 1.45D-03  0.00D+00 EMaxC= 1.00D-01 BMatC= 7.16D-04 BMatP= 7.16D-04
 IDIUse=3 WtCom= 9.86D-01 WtEn= 1.45D-02
 Coeff-Com:  0.100D+01
 Coeff-En:   0.100D+01
 Coeff:      0.100D+01
 Gap=     2.156 Goal=   None    Shift=    0.000
 GapD=    2.156 DampG=2.000 DampE=1.000 DampFc=2.0000 IDamp=-1.
 RMSDP=4.30D-04 MaxDP=6.73D-03              OVMax= 1.38D-02

 Cycle   2  Pass 0  IDiag  1:
 RMSU=  4.27D-04    CP:  1.00D+00
 E= -385.596676276299     Delta-E=       -0.001080313079 Rises=F Damp=F
 DIIS: error= 7.61D-04 at cycle   2 NSaved=   2.
 NSaved= 2 IEnMin= 2 EnMin= -385.596676276299     IErMin= 2 ErrMin= 7.61D-04
 ErrMax= 7.61D-04  0.00D+00 EMaxC= 1.00D-01 BMatC= 1.12D-04 BMatP= 7.16D-04
 IDIUse=3 WtCom= 9.92D-01 WtEn= 7.61D-03
 Coeff-Com:  0.169D+00 0.831D+00
 Coeff-En:   0.000D+00 0.100D+01
 Coeff:      0.167D+00 0.833D+00
 Gap=     0.212 Goal=   None    Shift=    0.000
 RMSDP=1.22D-04 MaxDP=2.64D-03 DE=-1.08D-03 OVMax= 8.56D-03

 Cycle   3  Pass 0  IDiag  1:
 RMSU=  1.18D-04    CP:  1.00D+00  1.06D+00
 E= -385.596757430113     Delta-E=       -0.000081153814 Rises=F Damp=F
 DIIS: error= 9.91D-04 at cycle   3 NSaved=   3.
 NSaved= 3 IEnMin= 3 EnMin= -385.596757430113     IErMin= 2 ErrMin= 7.61D-04
 ErrMax= 9.91D-04  0.00D+00 EMaxC= 1.00D-01 BMatC= 7.28D-05 BMatP= 1.12D-04
 IDIUse=3 WtCom= 9.90D-01 WtEn= 9.91D-03
 Coeff-Com: -0.300D-01 0.440D+00 0.590D+00
 Coeff-En:   0.000D+00 0.253D+00 0.747D+00
 Coeff:     -0.297D-01 0.438D+00 0.591D+00
 Gap=     0.214 Goal=   None    Shift=    0.000
 RMSDP=7.71D-05 MaxDP=1.62D-03 DE=-8.12D-05 OVMax= 6.86D-03

 Cycle   4  Pass 0  IDiag  1:
 RMSU=  5.60D-05    CP:  1.00D+00  1.11D+00  5.80D-01
 E= -385.596853495653     Delta-E=       -0.000096065540 Rises=F Damp=F
 DIIS: error= 3.44D-04 at cycle   4 NSaved=   4.
 NSaved= 4 IEnMin= 4 EnMin= -385.596853495653     IErMin= 4 ErrMin= 3.44D-04
 ErrMax= 3.44D-04  0.00D+00 EMaxC= 1.00D-01 BMatC= 7.36D-06 BMatP= 7.28D-05
 IDIUse=3 WtCom= 9.97D-01 WtEn= 3.44D-03
 Coeff-Com: -0.249D-01 0.699D-01 0.265D+00 0.690D+00
 Coeff-En:   0.000D+00 0.000D+00 0.000D+00 0.100D+01
 Coeff:     -0.248D-01 0.696D-01 0.264D+00 0.691D+00
 Gap=     0.213 Goal=   None    Shift=    0.000
 RMSDP=3.01D-05 MaxDP=4.84D-04 DE=-9.61D-05 OVMax= 3.15D-03

 Cycle   5  Pass 0  IDiag  1:
 RMSU=  2.20D-05    CP:  1.00D+00  1.12D+00  7.39D-01  1.10D+00
 E= -385.596873458162     Delta-E=       -0.000019962509 Rises=F Damp=F
 DIIS: error= 2.16D-04 at cycle   5 NSaved=   5.
 NSaved= 5 IEnMin= 5 EnMin= -385.596873458162     IErMin= 5 ErrMin= 2.16D-04
 ErrMax= 2.16D-04  0.00D+00 EMaxC= 1.00D-01 BMatC= 1.13D-06 BMatP= 7.36D-06
 IDIUse=3 WtCom= 9.98D-01 WtEn= 2.16D-03
 Coeff-Com: -0.137D-02-0.708D-01-0.329D-01 0.172D+00 0.933D+00
 Coeff-En:   0.000D+00 0.000D+00 0.000D+00 0.000D+00 0.100D+01
 Coeff:     -0.137D-02-0.706D-01-0.329D-01 0.171D+00 0.933D+00
 Gap=     0.213 Goal=   None    Shift=    0.000
 RMSDP=2.36D-05 MaxDP=4.45D-04 DE=-2.00D-05 OVMax= 3.06D-03

 Cycle   6  Pass 0  IDiag  1:
 RMSU=  8.51D-06    CP:  1.00D+00  1.13D+00  8.05D-01  1.42D+00  1.38D+00
 E= -385.596882295109     Delta-E=       -0.000008836947 Rises=F Damp=F
 DIIS: error= 1.34D-04 at cycle   6 NSaved=   6.
 NSaved= 6 IEnMin= 6 EnMin= -385.596882295109     IErMin= 6 ErrMin= 1.34D-04
 ErrMax= 1.34D-04  0.00D+00 EMaxC= 1.00D-01 BMatC= 3.81D-07 BMatP= 1.13D-06
 IDIUse=3 WtCom= 9.99D-01 WtEn= 1.34D-03
 Coeff-Com:  0.973D-02-0.583D-01-0.118D+00-0.201D+00 0.332D+00 0.104D+01
 Coeff-En:   0.000D+00 0.000D+00 0.000D+00 0.000D+00 0.000D+00 0.100D+01
 Coeff:      0.972D-02-0.582D-01-0.118D+00-0.201D+00 0.332D+00 0.104D+01
 Gap=     0.213 Goal=   None    Shift=    0.000
 RMSDP=2.14D-05 MaxDP=3.82D-04 DE=-8.84D-06 OVMax= 2.92D-03

 Cycle   7  Pass 0  IDiag  1:
 RMSU=  5.54D-06    CP:  1.00D+00  1.14D+00  8.68D-01  1.69D+00  1.89D+00
                    CP:  1.21D+00
 E= -385.596886134832     Delta-E=       -0.000003839723 Rises=F Damp=F
 DIIS: error= 3.66D-05 at cycle   7 NSaved=   7.
 NSaved= 7 IEnMin= 7 EnMin= -385.596886134832     IErMin= 7 ErrMin= 3.66D-05
 ErrMax= 3.66D-05  0.00D+00 EMaxC= 1.00D-01 BMatC= 8.98D-08 BMatP= 3.81D-07
 IDIUse=1 WtCom= 1.00D+00 WtEn= 0.00D+00
 Coeff-Com:  0.486D-02-0.124D-01-0.495D-01-0.131D+00-0.643D-01 0.469D+00
 Coeff-Com:  0.784D+00
 Coeff:      0.486D-02-0.124D-01-0.495D-01-0.131D+00-0.643D-01 0.469D+00
 Coeff:      0.784D+00
 Gap=     0.213 Goal=   None    Shift=    0.000
 RMSDP=8.44D-06 MaxDP=1.53D-04 DE=-3.84D-06 OVMax= 1.05D-03

 Initial convergence to 1.0D-05 achieved.  Increase integral accuracy.
 Cycle   8  Pass 1  IDiag  1:
 E= -385.596907201612     Delta-E=       -0.000021066779 Rises=F Damp=F
 DIIS: error= 1.97D-05 at cycle   1 NSaved=   1.
 NSaved= 1 IEnMin= 1 EnMin= -385.596907201612     IErMin= 1 ErrMin= 1.97D-05
 ErrMax= 1.97D-05  0.00D+00 EMaxC= 1.00D-01 BMatC= 3.04D-08 BMatP= 3.04D-08
 IDIUse=1 WtCom= 1.00D+00 WtEn= 0.00D+00
 Coeff-Com:  0.100D+01
 Coeff:      0.100D+01
 Gap=     0.213 Goal=   None    Shift=    0.000
 RMSDP=8.44D-06 MaxDP=1.53D-04 DE=-2.11D-05 OVMax= 1.36D-04

 Cycle   9  Pass 1  IDiag  1:
 RMSU=  6.77D-06    CP:  1.00D+00
 E= -385.596907224230     Delta-E=       -0.000000022618 Rises=F Damp=F
 DIIS: error= 7.62D-06 at cycle   2 NSaved=   2.
 NSaved= 2 IEnMin= 2 EnMin= -385.596907224230     IErMin= 2 ErrMin= 7.62D-06
 ErrMax= 7.62D-06  0.00D+00 EMaxC= 1.00D-01 BMatC= 9.16D-09 BMatP= 3.04D-08
 IDIUse=1 WtCom= 1.00D+00 WtEn= 0.00D+00
 Coeff-Com:  0.287D+00 0.713D+00
 Coeff:      0.287D+00 0.713D+00
 Gap=     0.213 Goal=   None    Shift=    0.000
 RMSDP=1.11D-06 MaxDP=2.06D-05 DE=-2.26D-08 OVMax= 6.26D-05

 Cycle  10  Pass 1  IDiag  1:
 RMSU=  1.11D-06    CP:  1.00D+00  1.01D+00
 E= -385.596907231894     Delta-E=       -0.000000007664 Rises=F Damp=F
 DIIS: error= 6.25D-06 at cycle   3 NSaved=   3.
 NSaved= 3 IEnMin= 3 EnMin= -385.596907231894     IErMin= 3 ErrMin= 6.25D-06
 ErrMax= 6.25D-06  0.00D+00 EMaxC= 1.00D-01 BMatC= 3.59D-09 BMatP= 9.16D-09
 IDIUse=1 WtCom= 1.00D+00 WtEn= 0.00D+00
 Coeff-Com: -0.214D-01 0.378D+00 0.643D+00
 Coeff:     -0.214D-01 0.378D+00 0.643D+00
 Gap=     0.213 Goal=   None    Shift=    0.000
 RMSDP=5.26D-07 MaxDP=1.10D-05 DE=-7.66D-09 OVMax= 5.02D-05

 Cycle  11  Pass 1  IDiag  1:
 RMSU=  3.54D-07    CP:  1.00D+00  1.04D+00  6.93D-01
 E= -385.596907237134     Delta-E=       -0.000000005240 Rises=F Damp=F
[...]
 WARNING: insufficient num. of quanta (C1) for mode      1
 WARNING: insufficient num. of quanta (C1) for mode      5
    Spectrum progression:   53.61%

 -- To: combinations of  5 simultaneously excited modes --
 WARNING: insufficient num. of quanta (C1) for mode      1
 WARNING: insufficient num. of quanta (C1) for mode      5
    Spectrum progression:   64.16%

 -- To: combinations of  6 simultaneously excited modes --
 WARNING: insufficient num. of quanta (C1) for mode      1
 WARNING: insufficient num. of quanta (C1) for mode      5
    Spectrum progression:   67.00%

 -- To: combinations of  7 simultaneously excited modes --
 WARNING: insufficient num. of quanta (C1) for mode      1
 WARNING: insufficient num. of quanta (C1) for mode      5
    Spectrum progression:   67.45%

     ==================================================
                 Information on Transitions
     ==================================================

 Energy of the 0-0 transition:  16929.1086 cm^(-1)

 NOTE: The energy (transition energy) refers to the relative energy,
       with respect to the 0-0 transition energy
       The intensity is the line intensity.
       DipStr is the dipole strength.

 Energy =      0.0000 cm^-1: |0> -> |0>
   -> Intensity = 0.2730     (DipStr = 0.1737E-02)

     ==================================================
                       Final Spectrum
     ==================================================

 WARNING: About 73% of the calculated intensity is shown in the final
          spectrum.

 Band broadening simulated by mean of Gaussian functions with
 Half-Widths at Half-Maximum of  400.00 cm^(-1)
 
 Legend:
 -------
 1st col.: Energy (in cm^-1)
 2nd col.: Intensity at T=0K
 Intensity: Emitted intensity (in microJ.mol^-1)
 -----------------------------
     8929.1086    0.411594D-01
     8949.1086    0.415291D-01
     8969.1086    0.418876D-01
     8989.1086    0.422348D-01
     9009.1086    0.425711D-01
     9029.1086    0.428969D-01
     9049.1086    0.432135D-01
     9069.1086    0.435208D-01
     9089.1086    0.438203D-01
     9109.1086    0.441126D-01
     9129.1086    0.443987D-01
     9149.1086    0.446802D-01
     9169.1086    0.449583D-01
     9189.1086    0.452337D-01
     9209.1086    0.455081D-01
     9229.1086    0.457832D-01
     9249.1086    0.460604D-01
     9269.1086    0.463415D-01
     9289.1086    0.466282D-01
     9309.1086    0.469224D-01
     9329.1086    0.472257D-01
     9349.1086    0.475402D-01
     9369.1086    0.478678D-01
     9389.1086    0.482103D-01
     9409.1086    0.485698D-01
     9429.1086    0.489483D-01
     9449.1086    0.493478D-01
     9469.1086    0.497701D-01
     9489.1086    0.502170D-01
     9509.1086    0.506906D-01
     9529.1086    0.511927D-01
     9549.1086    0.517249D-01
     9569.1086    0.522888D-01
     9589.1086    0.528859D-01
     9609.1086    0.535175D-01
     9629.1086    0.541851D-01
     9649.1086    0.548894D-01
     9669.1086    0.556315D-01
     9689.1086    0.564122D-01
     9709.1086    0.572318D-01
     9729.1086    0.580907D-01
     9749.1086    0.589889D-01
     9769.1086    0.599264D-01
     9789.1086    0.609025D-01
     9809.1086    0.619167D-01
     9829.1086    0.629681D-01
     9849.1086    0.640555D-01
     9869.1086    0.651773D-01
     9889.1086    0.663318D-01
     9909.1086    0.675170D-01
     9929.1086    0.687307D-01
     9949.1086    0.699703D-01
     9969.1086    0.712331D-01
     9989.1086    0.725160D-01
    10009.1086    0.738158D-01
    10029.1086    0.751292D-01
    10049.1086    0.764525D-01
    10069.1086    0.777819D-01
    10089.1086    0.791136D-01
    10109.1086    0.804436D-01
    10129.1086    0.817677D-01
    10149.1086    0.830821D-01
    10169.1086    0.843826D-01
    10189.1086    0.856652D-01
    10209.1086    0.869259D-01
    10229.1086    0.881611D-01
    10249.1086    0.893669D-01
    10269.1086    0.905400D-01
    10289.1086    0.916773D-01
    10309.1086    0.927759D-01
    10329.1086    0.938333D-01
    10349.1086    0.948470D-01
    10369.1086    0.958156D-01
    10389.1086    0.967376D-01
    10409.1086    0.976119D-01
    10429.1086    0.984383D-01
    10449.1086    0.992164D-01
    10469.1086    0.999466D-01
    10489.1086    0.100630D+00
    10509.1086    0.101268D+00
    10529.1086    0.101861D+00
    10549.1086    0.102413D+00
    10569.1086    0.102926D+00
    10589.1086    0.103402D+00
    10609.1086    0.103845D+00
    10629.1086    0.104258D+00
    10649.1086    0.104644D+00
    10669.1086    0.105009D+00
    10689.1086    0.105355D+00
    10709.1086    0.105686D+00
    10729.1086    0.106007D+00
    10749.1086    0.106322D+00
    10769.1086    0.106635D+00
    10789.1086    0.106950D+00
    10809.1086    0.107271D+00
    10829.1086    0.107600D+00
    10849.1086    0.107944D+00
    10869.1086    0.108304D+00
    10889.1086    0.108683D+00
    10909.1086    0.109085D+00
    10929.1086    0.109512D+00
    10949.1086    0.109967D+00
    10969.1086    0.110452D+00
    10989.1086    0.110969D+00
    11009.1086    0.111521D+00
    11029.1086    0.112108D+00
    11049.1086    0.112732D+00
    11069.1086    0.113395D+00
    11089.1086    0.114098D+00
    11109.1086    0.114842D+00
    11129.1086    0.115628D+00
    11149.1086    0.116457D+00
    11169.1086    0.117330D+00
    11189.1086    0.118247D+00
    11209.1086    0.119210D+00
    11229.1086    0.120218D+00
    11249.1086    0.121274D+00
    11269.1086    0.122378D+00
    11289.1086    0.123529D+00
    11309.1086    0.124730D+00
    11329.1086    0.125980D+00
    11349.1086    0.127281D+00
    11369.1086    0.128632D+00
    11389.1086    0.130036D+00
    11409.1086    0.131492D+00
    11429.1086    0.133000D+00
    11449.1086    0.134562D+00
    11469.1086    0.136177D+00
    11489.1086    0.137845D+00
    11509.1086    0.139568D+00
    11529.1086    0.141343D+00
    11549.1086    0.143172D+00
    11569.1086    0.145054D+00
    11589.1086    0.146988D+00
    11609.1086    0.148973D+00
    11629.1086    0.151007D+00
    11649.1086    0.153090D+00
    11669.1086    0.155220D+00
    11689.1086    0.157395D+00
    11709.1086    0.159612D+00
    11729.1086    0.161869D+00
    11749.1086    0.164163D+00
    11769.1086    0.166492D+00
    11789.1086    0.168851D+00
    11809.1086    0.171237D+00
    11829.1086    0.173647D+00
    11849.1086    0.176076D+00
    11869.1086    0.178520D+00
    11889.1086    0.180974D+00
    11909.1086    0.183435D+00
    11929.1086    0.185895D+00
    11949.1086    0.188352D+00
    11969.1086    0.190800D+00
    11989.1086    0.193234D+00
    12009.1086    0.195650D+00
    12029.1086    0.198042D+00
    12049.1086    0.200405D+00
    12069.1086    0.202733D+00
    12089.1086    0.205025D+00
    12109.1086    0.207274D+00
    12129.1086    0.209477D+00
    12149.1086    0.211630D+00
    12169.1086    0.213729D+00
    12189.1086    0.215771D+00
    12209.1086    0.217754D+00
    12229.1086    0.219675D+00
    12249.1086    0.221535D+00
    12269.1086    0.223329D+00
    12289.1086    0.225057D+00
    12309.1086    0.226721D+00
    12329.1086    0.228321D+00
    12349.1086    0.229856D+00
    12369.1086    0.231331D+00
    12389.1086    0.232744D+00
    12409.1086    0.234101D+00
    12429.1086    0.235403D+00
    12449.1086    0.236653D+00
    12469.1086    0.237858D+00
    12489.1086    0.239024D+00
    12509.1086    0.240150D+00
    12529.1086    0.241244D+00
    12549.1086    0.242312D+00
    12569.1086    0.243361D+00
    12589.1086    0.244397D+00
    12609.1086    0.245423D+00
    12629.1086    0.246447D+00
    12649.1086    0.247477D+00
    12669.1086    0.248518D+00
    12689.1086    0.249577D+00
    12709.1086    0.250661D+00
    12729.1086    0.251776D+00
    12749.1086    0.252928D+00
    12769.1086    0.254122D+00
    12789.1086    0.255365D+00
    12809.1086    0.256664D+00
    12829.1086    0.258020D+00
    12849.1086    0.259444D+00
    12869.1086    0.260934D+00
    12889.1086    0.262497D+00
    12909.1086    0.264137D+00
    12929.1086    0.265857D+00
    12949.1086    0.267661D+00
    12969.1086    0.269549D+00
    12989.1086    0.271522D+00
    13009.1086    0.273586D+00
    13029.1086    0.275737D+00
    13049.1086    0.277976D+00
    13069.1086    0.280305D+00
    13089.1086    0.282721D+00
    13109.1086    0.285223D+00
    13129.1086    0.287810D+00
    13149.1086    0.290478D+00
    13169.1086    0.293225D+00
    13189.1086    0.296047D+00
    13209.1086    0.298939D+00
    13229.1086    0.301896D+00
    13249.1086    0.304915D+00
    13269.1086    0.307989D+00
    13289.1086    0.311111D+00
    13309.1086    0.314275D+00
    13329.1086    0.317474D+00
    13349.1086    0.320704D+00
    13369.1086    0.323952D+00
    13389.1086    0.327211D+00
    13409.1086    0.330476D+00
    13429.1086    0.333737D+00
    13449.1086    0.336985D+00
    13469.1086    0.340213D+00
    13489.1086    0.343415D+00
    13509.1086    0.346578D+00
    13529.1086    0.349692D+00
    13549.1086    0.352754D+00
    13569.1086    0.355753D+00
    13589.1086    0.358683D+00
    13609.1086    0.361534D+00
    13629.1086    0.364300D+00
    13649.1086    0.366975D+00
    13669.1086    0.369554D+00
    13689.1086    0.372027D+00
    13709.1086    0.374394D+00
    13729.1086    0.376647D+00
    13749.1086    0.378785D+00
    13769.1086    0.380800D+00
    13789.1086    0.382695D+00
    13809.1086    0.384463D+00
    13829.1086    0.386124D+00
    13849.1086    0.387647D+00
    13869.1086    0.389047D+00
    13889.1086    0.390329D+00
    13909.1086    0.391491D+00
    13929.1086    0.392541D+00
    13949.1086    0.393481D+00
    13969.1086    0.394317D+00
    13989.1086    0.395058D+00
    14009.1086    0.395710D+00
    14029.1086    0.396283D+00
    14049.1086    0.396789D+00
    14069.1086    0.397232D+00
    14089.1086    0.397626D+00
    14109.1086    0.397984D+00
    14129.1086    0.398317D+00
    14149.1086    0.398637D+00
    14169.1086    0.398959D+00
    14189.1086    0.399305D+00
    14209.1086    0.399673D+00
    14229.1086    0.400084D+00
    14249.1086    0.400553D+00
    14269.1086    0.401095D+00
    14289.1086    0.401728D+00
    14309.1086    0.402454D+00
    14329.1086    0.403295D+00
    14349.1086    0.404260D+00
    14369.1086    0.405363D+00
    14389.1086    0.406615D+00
    14409.1086    0.408027D+00
    14429.1086    0.409610D+00
    14449.1086    0.411370D+00
    14469.1086    0.413316D+00
    14489.1086    0.415456D+00
    14509.1086    0.417792D+00
    14529.1086    0.420332D+00
    14549.1086    0.423076D+00
    14569.1086    0.426021D+00
    14589.1086    0.429169D+00
    14609.1086    0.432519D+00
    14629.1086    0.436066D+00
    14649.1086    0.439804D+00
    14669.1086    0.443724D+00
    14689.1086    0.447820D+00
    14709.1086    0.452078D+00
    14729.1086    0.456483D+00
    14749.1086    0.461023D+00
    14769.1086    0.465680D+00
    14789.1086    0.470436D+00
    14809.1086    0.475271D+00
    14829.1086    0.480164D+00
    14849.1086    0.485089D+00
    14869.1086    0.490025D+00
    14889.1086    0.494946D+00
    14909.1086    0.499822D+00
    14929.1086    0.504629D+00
    14949.1086    0.509336D+00
    14969.1086    0.513921D+00
    14989.1086    0.518348D+00
    15009.1086    0.522590D+00
    15029.1086    0.526631D+00
    15049.1086    0.530423D+00
    15069.1086    0.533947D+00
    15089.1086    0.537182D+00
    15109.1086    0.540097D+00
    15129.1086    0.542675D+00
    15149.1086    0.544889D+00
    15169.1086    0.546737D+00
    15189.1086    0.548175D+00
    15209.1086    0.549203D+00
    15229.1086    0.549805D+00
    15249.1086    0.549973D+00
    15269.1086    0.549700D+00
    15289.1086    0.548987D+00
    15309.1086    0.547820D+00
    15329.1086    0.546211D+00
    15349.1086    0.544162D+00
    15369.1086    0.541685D+00
    15389.1086    0.538777D+00
    15409.1086    0.535457D+00
    15429.1086    0.531742D+00
    15449.1086    0.527658D+00
    15469.1086    0.523206D+00
    15489.1086    0.518417D+00
    15509.1086    0.513314D+00
    15529.1086    0.507979D+00
    15549.1086    0.502345D+00
    15569.1086    0.496484D+00
    15589.1086    0.490430D+00
    15609.1086    0.484215D+00
    15629.1086    0.477874D+00
    15649.1086    0.471444D+00
    15669.1086    0.464960D+00
    15689.1086    0.458463D+00
    15709.1086    0.451991D+00
    15729.1086    0.445582D+00
    15749.1086    0.439276D+00
    15769.1086    0.433112D+00
    15789.1086    0.427134D+00
    15809.1086    0.421379D+00
    15829.1086    0.415884D+00
    15849.1086    0.410692D+00
    15869.1086    0.405839D+00
    15889.1086    0.401360D+00
    15909.1086    0.397291D+00
    15929.1086    0.393666D+00
    15949.1086    0.390516D+00
    15969.1086    0.387869D+00
    15989.1086    0.385752D+00
    16009.1086    0.384189D+00
    16029.1086    0.383201D+00
    16049.1086    0.382804D+00
    16069.1086    0.383010D+00
    16089.1086    0.383832D+00
    16109.1086    0.385273D+00
    16129.1086    0.387336D+00
    16149.1086    0.390015D+00
    16169.1086    0.393301D+00
    16189.1086    0.397187D+00
    16209.1086    0.401652D+00
    16229.1086    0.406672D+00
    16249.1086    0.412220D+00
    16269.1086    0.418264D+00
    16289.1086    0.424767D+00
    16309.1086    0.431681D+00
    16329.1086    0.438968D+00
    16349.1086    0.446572D+00
    16369.1086    0.454435D+00
    16389.1086    0.462496D+00
    16409.1086    0.470691D+00
    16429.1086    0.478954D+00
    16449.1086    0.487212D+00
    16469.1086    0.495391D+00
    16489.1086    0.503412D+00
    16509.1086    0.511201D+00
    16529.1086    0.518674D+00
    16549.1086    0.525757D+00
    16569.1086    0.532365D+00
    16589.1086    0.538425D+00
    16609.1086    0.543855D+00
    16629.1086    0.548584D+00
    16649.1086    0.552525D+00
    16669.1086    0.555642D+00
    16689.1086    0.557858D+00
    16709.1086    0.559111D+00
    16729.1086    0.559358D+00
    16749.1086    0.558550D+00
    16769.1086    0.556659D+00
    16789.1086    0.553657D+00
    16809.1086    0.549523D+00
    16829.1086    0.544253D+00
    16849.1086    0.537846D+00
    16869.1086    0.530311D+00
    16889.1086    0.521679D+00
    16909.1086    0.511974D+00
    16929.1086    0.501237D+00
    16949.1086    0.489520D+00
    16969.1086    0.476879D+00
    16989.1086    0.463382D+00
    17009.1086    0.449092D+00
    17029.1086    0.434107D+00
    17049.1086    0.418504D+00
    17069.1086    0.402371D+00
    17089.1086    0.385798D+00
    17109.1086    0.368879D+00
    17129.1086    0.351719D+00
    17149.1086    0.334406D+00
    17169.1086    0.317035D+00
    17189.1086    0.299698D+00
    17209.1086    0.282481D+00
    17229.1086    0.265471D+00
    17249.1086    0.248743D+00
    17269.1086    0.232373D+00
    17289.1086    0.216427D+00
    17309.1086    0.200960D+00
    17329.1086    0.186032D+00
    17349.1086    0.171680D+00
    17369.1086    0.157948D+00
    17389.1086    0.144864D+00
    17409.1086    0.132449D+00
    17429.1086    0.120717D+00
    17449.1086    0.109677D+00
    17469.1086    0.993306D-01
    17489.1086    0.896742D-01
    17509.1086    0.806949D-01
    17529.1086    0.723833D-01
    17549.1086    0.647201D-01
    17569.1086    0.576807D-01
    17589.1086    0.512411D-01
    17609.1086    0.453714D-01
    17629.1086    0.400422D-01
    17649.1086    0.352230D-01
    17669.1086    0.308842D-01
    17689.1086    0.269899D-01
    17709.1086    0.235088D-01
    17729.1086    0.204100D-01
    17749.1086    0.176610D-01
    17769.1086    0.152302D-01
    17789.1086    0.130886D-01
    17809.1086    0.112135D-01
    17829.1086    0.957494D-02
    17849.1086    0.813686D-02
    17869.1086    0.690205D-02
    17889.1086    0.583519D-02
    17909.1086    0.491433D-02
    17929.1086    0.412690D-02
 -----------------------------

 Leave Link  718 at Mon Mar 18 23:27:22 2024, MaxMem=120795955200 cpu:            5750.0 elap:              45.3
 (Enter /apps/gaussian/g16-c01-avx2/g16/l9999.exe)

 ----------------------------------------------------------------------

 Electric dipole moment (input orientation):
 (Debye = 10**-18 statcoulomb cm , SI units = C m)
                  (au)            (Debye)         (10**-30 SI)
   Tot        0.498758D+00      0.126772D+01      0.422865D+01
   x         -0.212679D+00     -0.540577D+00     -0.180317D+01
   y         -0.451140D+00     -0.114668D+01     -0.382492D+01
   z         -0.753644D-04     -0.191557D-03     -0.638966D-03

 Dipole polarizability, Alpha (input orientation).
 (esu units = cm**3 , SI units = C**2 m**2 J**-1)
 Alpha(0;0):
               (au)            (10**-24 esu)      (10**-40 SI)
   iso        0.106713D+03      0.158132D+02      0.175946D+02
   aniso      0.121908D+03      0.180648D+02      0.200998D+02
   xx         0.125294D+03      0.185666D+02      0.206581D+02
   yx         0.223556D+02      0.331275D+01      0.368594D+01
   yy         0.162192D+03      0.240344D+02      0.267419D+02
   zx        -0.334736D-01     -0.496028D-02     -0.551905D-02
   zy         0.396735D-01      0.587901D-02      0.654128D-02
   zz         0.326530D+02      0.483868D+01      0.538376D+01

 ----------------------------------------------------------------------

 Dipole orientation:
     6         -3.85374940          1.81713194          2.00837444
     6         -2.02263022          0.95417048          3.68970957
     6          0.30683335         -0.14408605          3.15781644
     6         -3.86171475          1.82040684         -0.62291173
     6          1.39842599         -0.65908066          0.83077994
     6         -2.00816512          0.94624612         -2.27105721
     6          0.31021390         -0.14659630         -1.72124224
     1         -5.53577638          2.61026696          2.88486322
     1         -2.47280519          1.16670473          5.68183473
     1          1.43717966         -0.67674748          4.79276353
     1         -5.53828576          2.61067747         -1.50664956
     1         -2.42971598          1.14462209         -4.27541962
     6          3.76345855         -1.77427197          0.43186010
     1          5.04566986         -2.37863983          1.90743842
     6          4.16847302         -1.96535532         -2.17249014
     1          5.84485000         -2.75573053         -3.04584718
     6          2.09371501         -0.98758793         -3.48451399
     1          1.87972187         -0.88701630         -5.51693469

 Electric dipole moment (dipole orientation):
 (Debye = 10**-18 statcoulomb cm , SI units = C m)
                  (au)            (Debye)         (10**-30 SI)
   Tot        0.498758D+00      0.126772D+01      0.422865D+01
   x          0.000000D+00      0.000000D+00      0.000000D+00
   y          0.000000D+00      0.000000D+00      0.000000D+00
   z          0.498758D+00      0.126772D+01      0.422865D+01

 Dipole polarizability, Alpha (dipole orientation).
 (esu units = cm**3 , SI units = C**2 m**2 J**-1)
 Alpha(0;0):
               (au)            (10**-24 esu)      (10**-40 SI)
   iso        0.106713D+03      0.158132D+02      0.175946D+02
   aniso      0.121908D+03      0.180648D+02      0.200998D+02
   xx         0.997919D+02      0.147876D+02      0.164535D+02
   yx        -0.316983D+02     -0.469720D+01     -0.522634D+01
   yy         0.476187D+02      0.705636D+01      0.785126D+01
   zx         0.565249D-02      0.837613D-03      0.931970D-03
   zy        -0.315786D-02     -0.467947D-03     -0.520661D-03
   zz         0.172728D+03      0.255957D+02      0.284791D+02

 ----------------------------------------------------------------------

 This type of calculation cannot be archived.


 BLACK HOLES SUCK.
 Job cpu time:       0 days  1 hours 36 minutes 36.8 seconds.
 Elapsed time:       0 days  0 hours  0 minutes 45.7 seconds.
 File lengths (MBytes):  RWF=      6 Int=      0 D2E=      0 Chk=      3 Scr=      1
 Normal termination of Gaussian 16 at Mon Mar 18 23:27:33 2024.
