 Entering Gaussian System, Link 0=g16
 Input=Perylene_linked2.gjf
 Output=Perylene_linked2.log
 Initial command:
 /apps/gaussian/g16-c01-avx2/g16/l1.exe "/var/tmp/pbs.9137726.pbs/Gau-969205.inp" -scrdir="/var/tmp/pbs.9137726.pbs/"
 Entering Link 1 = /apps/gaussian/g16-c01-avx2/g16/l1.exe PID=    969206.
  
 Copyright (c) 1988-2019, Gaussian, Inc.  All Rights Reserved.
  
 This is part of the Gaussian(R) 16 program.  It is based on
 the Gaussian(R) 09 system (copyright 2009, Gaussian, Inc.),
 the Gaussian(R) 03 system (copyright 2003, Gaussian, Inc.),
 the Gaussian(R) 98 system (copyright 1998, Gaussian, Inc.),
 the Gaussian(R) 94 system (copyright 1995, Gaussian, Inc.),
 the Gaussian 92(TM) system (copyright 1992, Gaussian, Inc.),
 the Gaussian 90(TM) system (copyright 1990, Gaussian, Inc.),
 the Gaussian 88(TM) system (copyright 1988, Gaussian, Inc.),
 the Gaussian 86(TM) system (copyright 1986, Carnegie Mellon
 University), and the Gaussian 82(TM) system (copyright 1983,
 Carnegie Mellon University). Gaussian is a federally registered
 trademark of Gaussian, Inc.
  
 This software contains proprietary and confidential information,
 including trade secrets, belonging to Gaussian, Inc.
  
 This software is provided under written license and may be
 used, copied, transmitted, or stored only in accord with that
 written license.
  
 The following legend is applicable only to US Government
 contracts under FAR:
  
                    RESTRICTED RIGHTS LEGEND
  
 Use, reproduction and disclosure by the US Government is
 subject to restrictions as set forth in subparagraphs (a)
 and (c) of the Commercial Computer Software - Restricted
 Rights clause in FAR 52.227-19.
  
 Gaussian, Inc.
 340 Quinnipiac St., Bldg. 40, Wallingford CT 06492
  
  
 ---------------------------------------------------------------
 Warning -- This program may not be used in any manner that
 competes with the business of Gaussian, Inc. or will provide
 assistance to any competitor of Gaussian, Inc.  The licensee
 of this program is prohibited from giving any competitor of
 Gaussian, Inc. access to this program.  By using this program,
 the user acknowledges that Gaussian, Inc. is engaged in the
 business of creating and licensing software in the field of
 computational chemistry and represents and warrants to the
 licensee that it is not a competitor of Gaussian, Inc. and that
 it will not use this program in any manner prohibited above.
 ---------------------------------------------------------------
  

 Cite this work as:
 Gaussian 16, Revision C.01,
 M. J. Frisch, G. W. Trucks, H. B. Schlegel, G. E. Scuseria, 
 M. A. Robb, J. R. Cheeseman, G. Scalmani, V. Barone, 
 G. A. Petersson, H. Nakatsuji, X. Li, M. Caricato, A. V. Marenich, 
 J. Bloino, B. G. Janesko, R. Gomperts, B. Mennucci, H. P. Hratchian, 
 J. V. Ortiz, A. F. Izmaylov, J. L. Sonnenberg, D. Williams-Young, 
 F. Ding, F. Lipparini, F. Egidi, J. Goings, B. Peng, A. Petrone, 
 T. Henderson, D. Ranasinghe, V. G. Zakrzewski, J. Gao, N. Rega, 
 G. Zheng, W. Liang, M. Hada, M. Ehara, K. Toyota, R. Fukuda, 
 J. Hasegawa, M. Ishida, T. Nakajima, Y. Honda, O. Kitao, H. Nakai, 
 T. Vreven, K. Throssell, J. A. Montgomery, Jr., J. E. Peralta, 
 F. Ogliaro, M. J. Bearpark, J. J. Heyd, E. N. Brothers, K. N. Kudin, 
 V. N. Staroverov, T. A. Keith, R. Kobayashi, J. Normand, 
 K. Raghavachari, A. P. Rendell, J. C. Burant, S. S. Iyengar, 
 J. Tomasi, M. Cossi, J. M. Millam, M. Klene, C. Adamo, R. Cammi, 
 J. W. Ochterski, R. L. Martin, K. Morokuma, O. Farkas, 
 J. B. Foresman, and D. J. Fox, Gaussian, Inc., Wallingford CT, 2019.
 
 ******************************************
 Gaussian 16:  ES64L-G16RevC.01  3-Jul-2019
                20-Mar-2024 
 ******************************************
 %chk=Perylene2-1.chk
 %NProcShared=128
 Will use up to  128 processors via shared memory.
 %Mem=900GB
 ---------------------------------------------
 #p B3LYP/Def2TZVPP geom=connectivity opt freq
 ---------------------------------------------
 1/18=20,19=15,26=3,38=1,57=2/1,3;
 2/9=110,12=2,17=6,18=5,40=1/2;
 3/5=44,7=202,11=2,25=1,30=1,71=1,74=-5/1,2,3;
 4//1;
 5/5=2,38=5/2;
 6/7=2,8=2,9=2,10=2,28=1/1;
 7//1,2,3,16;
 1/18=20,19=15,26=3/3(2);
 2/9=110/2;
 99//99;
 2/9=110/2;
 3/5=44,7=202,11=2,25=1,30=1,71=1,74=-5/1,2,3;
 4/5=5,16=3,69=1/1;
 5/5=2,38=5/2;
 7//1,2,3,16;
 1/18=20,19=15,26=3/3(-5);
 2/9=110/2;
 6/7=2,8=2,9=2,10=2,19=2,28=1/1;
 99/9=1/99;
 Leave Link    1 at Wed Mar 20 15:32:20 2024, MaxMem=120795955200 cpu:               3.1 elap:               0.0
 (Enter /apps/gaussian/g16-c01-avx2/g16/l101.exe)
 ----------------------------------------------------------------------
 Ground state geometry optimization and frequency calculation of peryle
 ne.
 ----------------------------------------------------------------------
 Symbolic Z-matrix:
 Charge =  0 Multiplicity = 1
 C                    -1.20569  -3.39753  -0.00015 
 C                     0.21957  -3.39753  -0.00015 
 C                     0.90215  -2.16528  -0.00015 
 C                     0.16572  -0.9405    0.00002 
 C                    -1.24272  -0.96551  -0.00009 
 C                    -1.9111   -2.22434  -0.00015 
 C                     2.33104  -2.13991  -0.0001 
 C                     0.8582    0.30964   0.00039 
 C                     2.2871    0.33502   0.00079 
 C                     3.02352  -0.88975   0.0005 
 C                     2.96965   1.56728   0.00153 
 C                     0.13231   1.51689   0.0006 
 C                    -1.29206   1.4663    0.00029 
 C                    -1.95537   0.26879  -0.00001 
 H                    -3.05565   0.23636  -0.00016 
 H                    -1.84819   2.41624   0.00036 
 H                    -1.72776  -4.36662  -0.00016 
 H                    -3.01184  -2.23099  -0.00015 
 C                     3.05692  -3.34715  -0.00053 
 C                     4.48129  -3.29656  -0.0005 
 C                     5.1446   -2.09905   0.00035 
 C                     4.43196  -0.86475   0.0009 
 H                     5.03742  -4.24649  -0.00099 
 H                     6.24488  -2.06662   0.0006 
 C                     4.39491   1.56729   0.00232 
 H                     4.91697   2.53639   0.00333 
 C                     5.10033   0.39409   0.00191 
 H                     6.20107   0.40077   0.00236 
 H                     0.86079  -4.29132  -0.00027 
 H                     2.50693  -4.29978  -0.00064 
 H                     0.68229   2.46952   0.00102 
 H                     2.38618   2.49978   0.00165 
 
 ITRead=  0  0  0  0  0  0  0  0  0  0  0  0  0  0  0  0  0  0  0  0
 ITRead=  0  0  0  0  0  0  0  0  0  0  0  0
 MicOpt= -1 -1 -1 -1 -1 -1 -1 -1 -1 -1 -1 -1 -1 -1 -1 -1 -1 -1 -1 -1
 MicOpt= -1 -1 -1 -1 -1 -1 -1 -1 -1 -1 -1 -1
 NAtoms=     32 NQM=       32 NQMF=       0 NMMI=      0 NMMIF=      0
                NMic=       0 NMicF=      0.
                    Isotopes and Nuclear Properties:
 (Nuclear quadrupole moments (NQMom) in fm**2, nuclear magnetic moments (NMagM)
  in nuclear magnetons)

  Atom         1           2           3           4           5           6           7           8           9          10
 IAtWgt=          12          12          12          12          12          12          12          12          12          12
 AtmWgt=  12.0000000  12.0000000  12.0000000  12.0000000  12.0000000  12.0000000  12.0000000  12.0000000  12.0000000  12.0000000
 NucSpn=           0           0           0           0           0           0           0           0           0           0
 AtZEff=  -0.0000000  -0.0000000  -0.0000000  -0.0000000  -0.0000000  -0.0000000  -0.0000000  -0.0000000  -0.0000000  -0.0000000
 NQMom=    0.0000000   0.0000000   0.0000000   0.0000000   0.0000000   0.0000000   0.0000000   0.0000000   0.0000000   0.0000000
 NMagM=    0.0000000   0.0000000   0.0000000   0.0000000   0.0000000   0.0000000   0.0000000   0.0000000   0.0000000   0.0000000
 AtZNuc=   6.0000000   6.0000000   6.0000000   6.0000000   6.0000000   6.0000000   6.0000000   6.0000000   6.0000000   6.0000000

  Atom        11          12          13          14          15          16          17          18          19          20
 IAtWgt=          12          12          12          12           1           1           1           1          12          12
 AtmWgt=  12.0000000  12.0000000  12.0000000  12.0000000   1.0078250   1.0078250   1.0078250   1.0078250  12.0000000  12.0000000
 NucSpn=           0           0           0           0           1           1           1           1           0           0
 AtZEff=  -0.0000000  -0.0000000  -0.0000000  -0.0000000  -0.0000000  -0.0000000  -0.0000000  -0.0000000  -0.0000000  -0.0000000
 NQMom=    0.0000000   0.0000000   0.0000000   0.0000000   0.0000000   0.0000000   0.0000000   0.0000000   0.0000000   0.0000000
 NMagM=    0.0000000   0.0000000   0.0000000   0.0000000   2.7928460   2.7928460   2.7928460   2.7928460   0.0000000   0.0000000
 AtZNuc=   6.0000000   6.0000000   6.0000000   6.0000000   1.0000000   1.0000000   1.0000000   1.0000000   6.0000000   6.0000000

  Atom        21          22          23          24          25          26          27          28          29          30
 IAtWgt=          12          12           1           1          12           1          12           1           1           1
 AtmWgt=  12.0000000  12.0000000   1.0078250   1.0078250  12.0000000   1.0078250  12.0000000   1.0078250   1.0078250   1.0078250
 NucSpn=           0           0           1           1           0           1           0           1           1           1
 AtZEff=  -0.0000000  -0.0000000  -0.0000000  -0.0000000  -0.0000000  -0.0000000  -0.0000000  -0.0000000  -0.0000000  -0.0000000
 NQMom=    0.0000000   0.0000000   0.0000000   0.0000000   0.0000000   0.0000000   0.0000000   0.0000000   0.0000000   0.0000000
 NMagM=    0.0000000   0.0000000   2.7928460   2.7928460   0.0000000   2.7928460   0.0000000   2.7928460   2.7928460   2.7928460
 AtZNuc=   6.0000000   6.0000000   1.0000000   1.0000000   6.0000000   1.0000000   6.0000000   1.0000000   1.0000000   1.0000000

  Atom        31          32
 IAtWgt=           1           1
 AtmWgt=   1.0078250   1.0078250
 NucSpn=           1           1
 AtZEff=  -0.0000000  -0.0000000
 NQMom=    0.0000000   0.0000000
 NMagM=    2.7928460   2.7928460
 AtZNuc=   1.0000000   1.0000000
 Leave Link  101 at Wed Mar 20 15:32:21 2024, MaxMem=120795955200 cpu:              22.8 elap:               0.2
 (Enter /apps/gaussian/g16-c01-avx2/g16/l103.exe)

 GradGradGradGradGradGradGradGradGradGradGradGradGradGradGradGradGradGrad
 Berny optimization.
 Initialization pass.
                           ----------------------------
                           !    Initial Parameters    !
                           ! (Angstroms and Degrees)  !
 --------------------------                            --------------------------
 ! Name  Definition              Value          Derivative Info.                !
 --------------------------------------------------------------------------------
 ! R1    R(1,2)                  1.4253         estimate D2E/DX2                !
 ! R2    R(1,6)                  1.3689         estimate D2E/DX2                !
 ! R3    R(1,17)                 1.1008         estimate D2E/DX2                !
 ! R4    R(2,3)                  1.4087         estimate D2E/DX2                !
 ! R5    R(2,29)                 1.1            estimate D2E/DX2                !
 ! R6    R(3,4)                  1.4291         estimate D2E/DX2                !
 ! R7    R(3,7)                  1.4291         estimate D2E/DX2                !
 ! R8    R(4,5)                  1.4087         estimate D2E/DX2                !
 ! R9    R(4,8)                  1.4291         estimate D2E/DX2                !
 ! R10   R(5,6)                  1.4253         estimate D2E/DX2                !
 ! R11   R(5,14)                 1.4253         estimate D2E/DX2                !
 ! R12   R(6,18)                 1.1008         estimate D2E/DX2                !
 ! R13   R(7,10)                 1.4291         estimate D2E/DX2                !
 ! R14   R(7,19)                 1.4087         estimate D2E/DX2                !
 ! R15   R(8,9)                  1.4291         estimate D2E/DX2                !
 ! R16   R(8,12)                 1.4087         estimate D2E/DX2                !
 ! R17   R(9,10)                 1.4291         estimate D2E/DX2                !
 ! R18   R(9,11)                 1.4087         estimate D2E/DX2                !
 ! R19   R(10,22)                1.4087         estimate D2E/DX2                !
 ! R20   R(11,25)                1.4253         estimate D2E/DX2                !
 ! R21   R(11,32)                1.1            estimate D2E/DX2                !
 ! R22   R(12,13)                1.4253         estimate D2E/DX2                !
 ! R23   R(12,31)                1.1            estimate D2E/DX2                !
 ! R24   R(13,14)                1.3689         estimate D2E/DX2                !
 ! R25   R(13,16)                1.1008         estimate D2E/DX2                !
 ! R26   R(14,15)                1.1008         estimate D2E/DX2                !
 ! R27   R(19,20)                1.4253         estimate D2E/DX2                !
 ! R28   R(19,30)                1.1            estimate D2E/DX2                !
 ! R29   R(20,21)                1.3689         estimate D2E/DX2                !
 ! R30   R(20,23)                1.1008         estimate D2E/DX2                !
 ! R31   R(21,22)                1.4253         estimate D2E/DX2                !
 ! R32   R(21,24)                1.1008         estimate D2E/DX2                !
 ! R33   R(22,27)                1.4253         estimate D2E/DX2                !
 ! R34   R(25,26)                1.1008         estimate D2E/DX2                !
 ! R35   R(25,27)                1.3689         estimate D2E/DX2                !
 ! R36   R(27,28)                1.1008         estimate D2E/DX2                !
 ! A1    A(2,1,6)              121.0175         estimate D2E/DX2                !
 ! A2    A(2,1,17)             118.3124         estimate D2E/DX2                !
 ! A3    A(6,1,17)             120.6701         estimate D2E/DX2                !
 ! A4    A(1,2,3)              118.9833         estimate D2E/DX2                !
 ! A5    A(1,2,29)             125.6563         estimate D2E/DX2                !
 ! A6    A(3,2,29)             115.3604         estimate D2E/DX2                !
 ! A7    A(2,3,4)              119.9994         estimate D2E/DX2                !
 ! A8    A(2,3,7)              120.0006         estimate D2E/DX2                !
 ! A9    A(4,3,7)              120.0            estimate D2E/DX2                !
 ! A10   A(3,4,5)              119.9999         estimate D2E/DX2                !
 ! A11   A(3,4,8)              119.9998         estimate D2E/DX2                !
 ! A12   A(5,4,8)              120.0003         estimate D2E/DX2                !
 ! A13   A(4,5,6)              118.9837         estimate D2E/DX2                !
 ! A14   A(4,5,14)             118.9833         estimate D2E/DX2                !
 ! A15   A(6,5,14)             122.033          estimate D2E/DX2                !
 ! A16   A(1,6,5)              121.0162         estimate D2E/DX2                !
 ! A17   A(1,6,18)             120.6712         estimate D2E/DX2                !
 ! A18   A(5,6,18)             118.3127         estimate D2E/DX2                !
 ! A19   A(3,7,10)             119.9999         estimate D2E/DX2                !
 ! A20   A(3,7,19)             120.0            estimate D2E/DX2                !
 ! A21   A(10,7,19)            120.0            estimate D2E/DX2                !
 ! A22   A(4,8,9)              120.0007         estimate D2E/DX2                !
 ! A23   A(4,8,12)             119.9995         estimate D2E/DX2                !
 ! A24   A(9,8,12)             119.9999         estimate D2E/DX2                !
 ! A25   A(8,9,10)             119.9994         estimate D2E/DX2                !
 ! A26   A(8,9,11)             120.0            estimate D2E/DX2                !
 ! A27   A(10,9,11)            120.0006         estimate D2E/DX2                !
 ! A28   A(7,10,9)             120.0002         estimate D2E/DX2                !
 ! A29   A(7,10,22)            119.9996         estimate D2E/DX2                !
 ! A30   A(9,10,22)            120.0001         estimate D2E/DX2                !
 ! A31   A(9,11,25)            118.9824         estimate D2E/DX2                !
 ! A32   A(9,11,32)            118.9835         estimate D2E/DX2                !
 ! A33   A(25,11,32)           122.0341         estimate D2E/DX2                !
 ! A34   A(8,12,13)            118.9838         estimate D2E/DX2                !
 ! A35   A(8,12,31)            118.9832         estimate D2E/DX2                !
 ! A36   A(13,12,31)           122.0331         estimate D2E/DX2                !
 ! A37   A(12,13,14)           121.0164         estimate D2E/DX2                !
 ! A38   A(12,13,16)           118.3128         estimate D2E/DX2                !
 ! A39   A(14,13,16)           120.6708         estimate D2E/DX2                !
 ! A40   A(5,14,13)            121.0169         estimate D2E/DX2                !
 ! A41   A(5,14,15)            118.3126         estimate D2E/DX2                !
 ! A42   A(13,14,15)           120.6705         estimate D2E/DX2                !
 ! A43   A(7,19,20)            118.9834         estimate D2E/DX2                !
 ! A44   A(7,19,30)            118.9831         estimate D2E/DX2                !
 ! A45   A(20,19,30)           122.0335         estimate D2E/DX2                !
 ! A46   A(19,20,21)           121.0165         estimate D2E/DX2                !
 ! A47   A(19,20,23)           118.3126         estimate D2E/DX2                !
 ! A48   A(21,20,23)           120.6708         estimate D2E/DX2                !
 ! A49   A(20,21,22)           121.0166         estimate D2E/DX2                !
 ! A50   A(20,21,24)           120.6708         estimate D2E/DX2                !
 ! A51   A(22,21,24)           118.3126         estimate D2E/DX2                !
 ! A52   A(10,22,21)           118.9839         estimate D2E/DX2                !
 ! A53   A(10,22,27)           118.983          estimate D2E/DX2                !
 ! A54   A(21,22,27)           122.0331         estimate D2E/DX2                !
 ! A55   A(11,25,26)           118.312          estimate D2E/DX2                !
 ! A56   A(11,25,27)           121.0175         estimate D2E/DX2                !
 ! A57   A(26,25,27)           120.6705         estimate D2E/DX2                !
 ! A58   A(22,27,25)           121.0163         estimate D2E/DX2                !
 ! A59   A(22,27,28)           118.3138         estimate D2E/DX2                !
 ! A60   A(25,27,28)           120.6698         estimate D2E/DX2                !
 ! D1    D(6,1,2,3)             -0.0001         estimate D2E/DX2                !
 ! D2    D(6,1,2,29)          -179.9926         estimate D2E/DX2                !
 ! D3    D(17,1,2,3)           179.9996         estimate D2E/DX2                !
 ! D4    D(17,1,2,29)            0.0072         estimate D2E/DX2                !
 ! D5    D(2,1,6,5)             -0.0027         estimate D2E/DX2                !
 ! D6    D(2,1,6,18)          -179.9999         estimate D2E/DX2                !
 ! D7    D(17,1,6,5)           179.9975         estimate D2E/DX2                !
 ! D8    D(17,1,6,18)            0.0003         estimate D2E/DX2                !
 ! D9    D(1,2,3,4)              0.0081         estimate D2E/DX2                !
 ! D10   D(1,2,3,7)            179.9978         estimate D2E/DX2                !
 ! D11   D(29,2,3,4)          -179.9986         estimate D2E/DX2                !
 ! D12   D(29,2,3,7)            -0.009          estimate D2E/DX2                !
 ! D13   D(2,3,4,5)             -0.0135         estimate D2E/DX2                !
 ! D14   D(2,3,4,8)            179.983          estimate D2E/DX2                !
 ! D15   D(7,3,4,5)            179.9969         estimate D2E/DX2                !
 ! D16   D(7,3,4,8)             -0.0067         estimate D2E/DX2                !
 ! D17   D(2,3,7,10)          -179.9722         estimate D2E/DX2                !
 ! D18   D(2,3,7,19)             0.0222         estimate D2E/DX2                !
 ! D19   D(4,3,7,10)             0.0174         estimate D2E/DX2                !
 ! D20   D(4,3,7,19)          -179.9881         estimate D2E/DX2                !
 ! D21   D(3,4,5,6)              0.0106         estimate D2E/DX2                !
 ! D22   D(3,4,5,14)          -179.9952         estimate D2E/DX2                !
 ! D23   D(8,4,5,6)           -179.9858         estimate D2E/DX2                !
 ! D24   D(8,4,5,14)             0.0083         estimate D2E/DX2                !
 ! D25   D(3,4,8,9)             -0.0094         estimate D2E/DX2                !
 ! D26   D(3,4,8,12)          -179.9982         estimate D2E/DX2                !
 ! D27   D(5,4,8,9)            179.9871         estimate D2E/DX2                !
 ! D28   D(5,4,8,12)            -0.0018         estimate D2E/DX2                !
 ! D29   D(4,5,6,1)             -0.0026         estimate D2E/DX2                !
 ! D30   D(4,5,6,18)           179.9947         estimate D2E/DX2                !
 ! D31   D(14,5,6,1)          -179.9966         estimate D2E/DX2                !
 ! D32   D(14,5,6,18)            0.0007         estimate D2E/DX2                !
 ! D33   D(4,5,14,13)           -0.0062         estimate D2E/DX2                !
 ! D34   D(4,5,14,15)          179.9964         estimate D2E/DX2                !
 ! D35   D(6,5,14,13)          179.9878         estimate D2E/DX2                !
 ! D36   D(6,5,14,15)           -0.0096         estimate D2E/DX2                !
 ! D37   D(3,7,10,9)            -0.0121         estimate D2E/DX2                !
 ! D38   D(3,7,10,22)          179.9831         estimate D2E/DX2                !
 ! D39   D(19,7,10,9)          179.9934         estimate D2E/DX2                !
 ! D40   D(19,7,10,22)          -0.0114         estimate D2E/DX2                !
 ! D41   D(3,7,19,20)          179.9989         estimate D2E/DX2                !
 ! D42   D(3,7,19,30)           -0.0152         estimate D2E/DX2                !
 ! D43   D(10,7,19,20)          -0.0067         estimate D2E/DX2                !
 ! D44   D(10,7,19,30)         179.9793         estimate D2E/DX2                !
 ! D45   D(4,8,9,10)             0.0146         estimate D2E/DX2                !
 ! D46   D(4,8,9,11)          -179.9822         estimate D2E/DX2                !
 ! D47   D(12,8,9,10)         -179.9965         estimate D2E/DX2                !
 ! D48   D(12,8,9,11)            0.0067         estimate D2E/DX2                !
 ! D49   D(4,8,12,13)           -0.0069         estimate D2E/DX2                !
 ! D50   D(4,8,12,31)          179.9922         estimate D2E/DX2                !
 ! D51   D(9,8,12,13)         -179.9958         estimate D2E/DX2                !
 ! D52   D(9,8,12,31)            0.0033         estimate D2E/DX2                !
 ! D53   D(8,9,10,7)            -0.0039         estimate D2E/DX2                !
 ! D54   D(8,9,10,22)         -179.9991         estimate D2E/DX2                !
 ! D55   D(11,9,10,7)          179.993          estimate D2E/DX2                !
 ! D56   D(11,9,10,22)          -0.0022         estimate D2E/DX2                !
 ! D57   D(8,9,11,25)          179.9811         estimate D2E/DX2                !
 ! D58   D(8,9,11,32)           -0.0088         estimate D2E/DX2                !
 ! D59   D(10,9,11,25)          -0.0158         estimate D2E/DX2                !
 ! D60   D(10,9,11,32)         179.9943         estimate D2E/DX2                !
 ! D61   D(7,10,22,21)           0.0166         estimate D2E/DX2                !
 ! D62   D(7,10,22,27)        -179.9811         estimate D2E/DX2                !
 ! D63   D(9,10,22,21)        -179.9882         estimate D2E/DX2                !
 ! D64   D(9,10,22,27)           0.0141         estimate D2E/DX2                !
 ! D65   D(9,11,25,26)        -179.9744         estimate D2E/DX2                !
 ! D66   D(9,11,25,27)           0.0223         estimate D2E/DX2                !
 ! D67   D(32,11,25,26)          0.0152         estimate D2E/DX2                !
 ! D68   D(32,11,25,27)       -179.9881         estimate D2E/DX2                !
 ! D69   D(8,12,13,14)           0.0093         estimate D2E/DX2                !
 ! D70   D(8,12,13,16)        -179.9941         estimate D2E/DX2                !
 ! D71   D(31,12,13,14)       -179.9898         estimate D2E/DX2                !
 ! D72   D(31,12,13,16)          0.0068         estimate D2E/DX2                !
 ! D73   D(12,13,14,5)          -0.0027         estimate D2E/DX2                !
 ! D74   D(12,13,14,15)        179.9947         estimate D2E/DX2                !
 ! D75   D(16,13,14,5)        -179.9993         estimate D2E/DX2                !
 ! D76   D(16,13,14,15)         -0.0019         estimate D2E/DX2                !
 ! D77   D(7,19,20,21)           0.0199         estimate D2E/DX2                !
 ! D78   D(7,19,20,23)        -179.9904         estimate D2E/DX2                !
 ! D79   D(30,19,20,21)       -179.9656         estimate D2E/DX2                !
 ! D80   D(30,19,20,23)          0.0241         estimate D2E/DX2                !
 ! D81   D(19,20,21,22)         -0.0148         estimate D2E/DX2                !
 ! D82   D(19,20,21,24)        179.9861         estimate D2E/DX2                !
 ! D83   D(23,20,21,22)        179.9958         estimate D2E/DX2                !
 ! D84   D(23,20,21,24)         -0.0033         estimate D2E/DX2                !
 ! D85   D(20,21,22,10)         -0.0036         estimate D2E/DX2                !
 ! D86   D(20,21,22,27)        179.994          estimate D2E/DX2                !
 ! D87   D(24,21,22,10)        179.9955         estimate D2E/DX2                !
 ! D88   D(24,21,22,27)         -0.0069         estimate D2E/DX2                !
 ! D89   D(10,22,27,25)         -0.0079         estimate D2E/DX2                !
 ! D90   D(10,22,27,28)        179.9919         estimate D2E/DX2                !
 ! D91   D(21,22,27,25)        179.9945         estimate D2E/DX2                !
 ! D92   D(21,22,27,28)         -0.0057         estimate D2E/DX2                !
 ! D93   D(11,25,27,22)         -0.0105         estimate D2E/DX2                !
 ! D94   D(11,25,27,28)        179.9897         estimate D2E/DX2                !
 ! D95   D(26,25,27,22)        179.9862         estimate D2E/DX2                !
 ! D96   D(26,25,27,28)         -0.0136         estimate D2E/DX2                !
 --------------------------------------------------------------------------------
 Trust Radius=3.00D-01 FncErr=1.00D-07 GrdErr=1.00D-06 EigMax=2.50D+02 EigMin=1.00D-04
 Number of steps in this run=    192 maximum allowed number of steps=    192.
 GradGradGradGradGradGradGradGradGradGradGradGradGradGradGradGradGradGrad

 Leave Link  103 at Wed Mar 20 15:32:21 2024, MaxMem=120795955200 cpu:               2.8 elap:               0.0
 (Enter /apps/gaussian/g16-c01-avx2/g16/l202.exe)
                          Input orientation:                          
 ---------------------------------------------------------------------
 Center     Atomic      Atomic             Coordinates (Angstroms)
 Number     Number       Type             X           Y           Z
 ---------------------------------------------------------------------
      1          6           0       -1.205690   -3.397535   -0.000151
      2          6           0        0.219572   -3.397535   -0.000151
      3          6           0        0.902150   -2.165284   -0.000151
      4          6           0        0.165723   -0.940503    0.000025
      5          6           0       -1.242725   -0.965515   -0.000088
      6          6           0       -1.911105   -2.224340   -0.000148
      7          6           0        2.331042   -2.139910   -0.000103
      8          6           0        0.858200    0.309639    0.000393
      9          6           0        2.287097    0.335024    0.000787
     10          6           0        3.023518   -0.889755    0.000497
     11          6           0        2.969647    1.567280    0.001528
     12          6           0        0.132307    1.516886    0.000604
     13          6           0       -1.292056    1.466303    0.000294
     14          6           0       -1.955370    0.268790   -0.000012
     15          1           0       -3.055651    0.236364   -0.000163
     16          1           0       -1.848193    2.416240    0.000363
     17          1           0       -1.727757   -4.366616   -0.000157
     18          1           0       -3.011841   -2.230994   -0.000146
     19          6           0        3.056922   -3.347148   -0.000529
     20          6           0        4.481288   -3.296562   -0.000496
     21          6           0        5.144603   -2.099050    0.000348
     22          6           0        4.431955   -0.864752    0.000905
     23          1           0        5.037420   -4.246493   -0.000993
     24          1           0        6.244883   -2.066620    0.000598
     25          6           0        4.394909    1.567285    0.002321
     26          1           0        4.916973    2.536386    0.003328
     27          6           0        5.100332    0.394085    0.001913
     28          1           0        6.201072    0.400768    0.002360
     29          1           0        0.860785   -4.291317   -0.000269
     30          1           0        2.506930   -4.299780   -0.000641
     31          1           0        0.682294    2.469522    0.001017
     32          1           0        2.386177    2.499783    0.001646
 ---------------------------------------------------------------------
                    Distance matrix (angstroms):
                    1          2          3          4          5
     1  C    0.000000
     2  C    1.425262   0.000000
     3  C    2.441604   1.408671   0.000000
     4  C    2.813855   2.457622   1.429130   0.000000
     5  C    2.432302   2.837787   2.457628   1.408670   0.000000
     6  C    1.368940   2.432318   2.813875   2.441608   1.425262
     7  C    3.753677   2.457626   1.429117   2.475315   3.761783
     8  C    4.242968   3.761780   2.475313   1.429118   2.457622
     9  C    5.111904   4.266926   2.858255   2.475318   3.761788
    10  C    4.916824   3.761791   2.475313   2.858246   4.266916
    11  C    6.487128   5.675588   4.266917   3.761777   4.915194
    12  C    5.093306   4.915196   3.761786   2.457616   2.837786
    13  C    4.864605   5.093323   4.242990   2.813865   2.432318
    14  C    3.742186   4.262899   3.753683   2.441603   1.425262
    15  H    4.077693   4.892066   4.629482   3.429616   2.175135
    16  H    5.849170   6.170546   5.343664   3.914535   3.435529
    17  H    1.100760   2.175134   3.429617   3.914526   3.435512
    18  H    2.150116   3.435527   3.914543   3.429618   2.175134
    19  C    4.262910   2.837797   2.457610   3.761778   4.915195
    20  C    5.687874   4.262912   3.753667   4.916820   6.180462
    21  C    6.481688   5.093328   4.242970   5.111896   6.487130
    22  C    6.180456   4.915197   3.761769   4.266905   5.675575
    23  H    6.300568   4.892074   4.629459   5.887529   7.085551
    24  H    7.568512   6.170552   5.343644   6.182582   7.568138
    25  C    7.484394   6.487132   5.111892   4.916810   6.180453
    26  H    8.526338   7.568157   6.182598   5.887541   7.085563
    27  C    7.358145   6.180470   4.916819   5.111897   6.487133
    28  H    8.323895   7.085581   5.887546   6.182593   7.568147
    29  H    2.251481   1.100000   2.126435   3.422143   3.935189
    30  H    3.820680   2.458872   2.670467   4.094630   5.017693
    31  H    6.163346   5.885275   4.640017   3.448929   3.937661
    32  H    6.905061   6.282718   4.895426   4.094629   5.017691
                    6          7          8          9         10
     6  C    0.000000
     7  C    4.242987   0.000000
     8  C    3.753678   2.858243   0.000000
     9  C    4.916833   2.475324   1.429123   0.000000
    10  C    5.111910   1.429129   2.475308   1.429125   0.000000
    11  C    6.180463   3.761792   2.457615   1.408662   2.457626
    12  C    4.262899   4.266918   1.408675   2.457624   3.761784
    13  C    3.742201   5.111909   2.441613   3.753682   4.916827
    14  C    2.493523   4.916825   2.813867   4.242984   5.111903
    15  H    2.713863   5.887541   3.914537   5.343659   6.182592
    16  H    4.641006   6.182597   3.429625   4.629480   5.887544
    17  H    2.150108   4.629478   5.343644   6.182594   5.887544
    18  H    1.100756   5.343659   4.629474   5.887546   6.182595
    19  C    5.093328   1.408661   4.266904   3.761785   2.457620
    20  C    6.481693   2.441598   5.111893   4.242982   2.813861
    21  C    7.056820   2.813858   4.916811   3.753672   2.441597
    22  C    6.487133   2.457614   3.761771   2.457616   1.408659
    23  H    7.236788   3.429603   6.182574   5.343648   3.914523
    24  H    8.157513   3.914527   5.887526   4.629467   3.429607
    25  C    7.358141   4.242976   3.753663   2.441586   2.813852
    26  H    8.323892   5.343669   4.629476   3.429614   3.914540
    27  C    7.484411   3.753678   4.242973   2.813855   2.441599
    28  H    8.526348   4.629491   5.343649   3.914527   3.429621
    29  H    3.457711   2.605802   4.600956   4.841218   4.030885
    30  H    4.881238   2.167020   4.895412   4.640015   3.448933
    31  H    5.362654   4.895430   2.167034   2.670482   4.094639
    32  H    6.386233   4.640021   2.670477   2.167026   3.448938
                   11         12         13         14         15
    11  C    0.000000
    12  C    2.837788   0.000000
    13  C    4.262899   1.425261   0.000000
    14  C    5.093316   2.432312   1.368950   0.000000
    15  H    6.170539   3.435522   2.150120   1.100759   0.000000
    16  H    4.892067   2.175136   1.100758   2.150123   2.491950
    17  H    7.568139   6.170530   5.849169   4.640991   4.790692
    18  H    7.085555   4.892062   4.077703   2.713863   2.467747
    19  C    4.915203   5.675579   6.487135   6.180459   7.085556
    20  C    5.093331   6.487135   7.484409   7.358145   8.323882
    21  C    4.262911   6.180462   7.358147   7.484403   8.526331
    22  C    2.837803   4.915198   6.180463   6.487129   7.568137
    23  H    6.170547   7.568135   8.526330   8.323875   9.251692
    24  H    4.892075   7.085556   8.323881   8.526329   9.581423
    25  C    1.425262   4.262900   5.687862   6.481677   7.568501
    26  H    2.175143   4.892077   6.300566   7.236788   8.297762
    27  C    2.432325   5.093325   6.481688   7.056815   8.157508
    28  H    3.435529   6.170545   7.568510   8.157510   9.258183
    29  H    6.226593   5.853708   6.146943   5.359599   5.986515
    30  H    5.885279   6.282710   6.905072   6.386232   7.177668
    31  H    2.458867   1.100000   2.214611   3.435184   4.354219
    32  H    1.100000   2.458865   3.820665   4.881225   5.893773
                   16         17         18         19         20
    16  H    0.000000
    17  H    6.783925   0.000000
    18  H    4.790706   2.491938   0.000000
    19  C    7.568143   4.892082   6.170550   0.000000
    20  C    8.526338   6.300576   7.568515   1.425264   0.000000
    21  C    8.323884   7.236794   8.157511   2.432316   1.368949
    22  C    7.085561   7.085556   7.568138   2.837782   2.432311
    23  H    9.581424   6.766243   8.297761   2.175131   1.100751
    24  H    9.251698   8.297769   9.258183   3.435527   2.150122
    25  C    6.300560   8.526325   8.323874   5.093316   4.864615
    26  H    6.766233   9.581434   9.251703   6.170557   5.849198
    27  C    7.236789   8.323886   8.526335   4.262904   3.742205
    28  H    8.297759   9.251718   9.581437   4.892092   4.077734
    29  H    7.233939   2.589637   4.386589   2.390496   3.754674
    30  H    8.004501   4.235214   5.893786   1.100000   2.214619
    31  H    2.531047   7.248526   5.978418   6.282715   6.905077
    32  H    4.235194   8.004492   7.177663   5.885279   6.163369
                   21         22         23         24         25
    21  C    0.000000
    22  C    1.425258   0.000000
    23  H    2.150117   3.435515   0.000000
    24  H    1.100758   2.175131   2.491950   0.000000
    25  C    3.742200   2.432320   5.849175   4.077704   0.000000
    26  H    4.641023   3.435548   6.783950   4.790722   1.100776
    27  C    2.493529   1.425272   4.641005   2.713866   1.368949
    28  H    2.713894   2.175159   4.790734   2.467778   2.150113
    29  H    4.812185   4.949202   4.176875   5.825614   6.842021
    30  H    3.435191   3.937657   2.531051   4.354228   6.163354
    31  H    6.386239   5.017703   8.004498   7.177673   3.820674
    32  H    5.362666   3.937678   7.248541   5.978432   2.214624
                   26         27         28         29         30
    26  H    0.000000
    27  C    2.150134   0.000000
    28  H    2.491942   1.100760   0.000000
    29  H    7.941674   6.318762   7.108750   0.000000
    30  H    7.248551   5.362659   5.978449   1.646166   0.000000
    31  H    4.235208   4.881240   5.893781   6.763194   7.010902
    32  H    2.531062   3.435201   4.354227   6.960306   6.800636
                   31         32
    31  H    0.000000
    32  H    1.704152   0.000000
 Stoichiometry    C20H12
 Framework group  C1[X(C20H12)]
 Deg. of freedom    90
 Full point group                 C1      NOp   1
 Largest Abelian subgroup         C1      NOp   1
 Largest concise Abelian subgroup C1      NOp   1
                         Standard orientation:                         
 ---------------------------------------------------------------------
 Center     Atomic      Atomic             Coordinates (Angstroms)
 Number     Number       Type             X           Y           Z
 ---------------------------------------------------------------------
      1          6           0       -2.842790   -2.434440    0.000658
      2          6           0       -1.417737   -2.458814    0.000437
      3          6           0       -0.714186   -1.238416   -0.000057
      4          6           0       -1.429560   -0.001220   -0.000152
      5          6           0       -2.838230   -0.002143   -0.000038
      6          6           0       -3.528039   -1.249354    0.000402
      7          6           0        0.714931   -1.237481   -0.000238
      8          6           0       -0.715806    1.236897   -0.000284
      9          6           0        0.713317    1.237842   -0.000120
     10          6           0        1.428685    0.000649   -0.000139
     11          6           0        1.416840    2.458246    0.000127
     12          6           0       -1.420947    2.456381   -0.000341
     13          6           0       -2.845967    2.430163   -0.000414
     14          6           0       -3.529663    1.244169   -0.000240
     15          1           0       -4.630337    1.230563   -0.000210
     16          1           0       -3.385778    3.389472   -0.000557
     17          1           0       -3.381353   -3.394452    0.001038
     18          1           0       -4.628728   -1.237183    0.000577
     19          6           0        1.420060   -2.456956   -0.000397
     20          6           0        2.845083   -2.430736   -0.000601
     21          6           0        3.528780   -1.244742   -0.000237
     22          6           0        2.837344    0.001563    0.000042
     23          1           0        3.384888   -3.390038   -0.000885
     24          1           0        4.629453   -1.231133   -0.000168
     25          6           0        2.841894    2.433878    0.000699
     26          1           0        3.380454    3.393910    0.001320
     27          6           0        3.527150    1.248786    0.000551
     28          1           0        4.627844    1.236644    0.000825
     29          1           0       -0.791902   -3.363430    0.000501
     30          1           0        0.853857   -3.400044   -0.000124
     31          1           0       -0.854750    3.399472   -0.000312
     32          1           0        0.849402    3.400591    0.000042
 ---------------------------------------------------------------------
 Rotational constants (GHZ):           0.6156440           0.3404150           0.2192066
 Leave Link  202 at Wed Mar 20 15:32:22 2024, MaxMem=120795955200 cpu:               7.4 elap:               0.1
 (Enter /apps/gaussian/g16-c01-avx2/g16/l301.exe)
 Standard basis: def2TZVPP (5D, 7F)
 Ernie: Thresh=  0.10000D-02 Tol=  0.10000D-05 Strict=F.
 There are   900 symmetry adapted cartesian basis functions of A   symmetry.
 There are   788 symmetry adapted basis functions of A   symmetry.
   788 basis functions,  1224 primitive gaussians,   900 cartesian basis functions
    66 alpha electrons       66 beta electrons
       nuclear repulsion energy      1371.1535598562 Hartrees.
 IExCor=  402 DFT=T Ex+Corr=B3LYP ExCW=0 ScaHFX=  0.200000
 ScaDFX=  0.800000  0.720000  1.000000  0.810000 ScalE2=  1.000000  1.000000
 IRadAn=      5 IRanWt=     -1 IRanGd=            0 ICorTp=0 IEmpDi=  4
 NAtoms=   32 NActive=   32 NUniq=   32 SFac= 1.00D+00 NAtFMM=   60 NAOKFM=F Big=F
 Integral buffers will be    131072 words long.
 Raffenetti 2 integral format.
 Two-electron integral symmetry is turned on.
 Leave Link  301 at Wed Mar 20 15:32:23 2024, MaxMem=120795955200 cpu:               8.6 elap:               0.1
 (Enter /apps/gaussian/g16-c01-avx2/g16/l302.exe)
 NPDir=0 NMtPBC=     1 NCelOv=     1 NCel=       1 NClECP=     1 NCelD=      1
         NCelK=      1 NCelE2=     1 NClLst=     1 CellRange=     0.0.
 One-electron integrals computed using PRISM.
 One-electron integral symmetry used in STVInt
   1 Symmetry operations used in ECPInt.
 ECPInt:  NShTT=   42778 NPrTT=  123732 LenC2=   38114 LenP2D=   81465.
 LDataN:  DoStor=T MaxTD1= 6 Len=  172
 NBasis=   788 RedAO= T EigKep=  1.48D-06  NBF=   788
 NBsUse=   788 1.00D-06 EigRej= -1.00D+00 NBFU=   788
 Precomputing XC quadrature grid using
 IXCGrd= 4 IRadAn=           5 IRanWt=          -1 IRanGd=           0 AccXCQ= 0.00D+00.
 Generated NRdTot=       0 NPtTot=           0 NUsed=           0 NTot=          32
 NSgBfM=   890   890   890   890   890 MxSgAt=    32 MxSgA2=    32.
 Leave Link  302 at Wed Mar 20 15:32:24 2024, MaxMem=120795955200 cpu:             160.3 elap:               1.3
 (Enter /apps/gaussian/g16-c01-avx2/g16/l303.exe)
 DipDrv:  MaxL=1.
 Leave Link  303 at Wed Mar 20 15:32:25 2024, MaxMem=120795955200 cpu:              11.8 elap:               0.1
 (Enter /apps/gaussian/g16-c01-avx2/g16/l401.exe)
 ExpMin= 9.52D-02 ExpMax= 1.36D+04 ExpMxC= 4.63D+02 IAcc=3 IRadAn=         5 AccDes= 0.00D+00
 Harris functional with IExCor=  402 and IRadAn=       5 diagonalized for initial guess.
 HarFok:  IExCor=  402 AccDes= 0.00D+00 IRadAn=         5 IDoV= 1 UseB2=F ITyADJ=14
 ICtDFT=  3500011 ScaDFX=  1.000000  1.000000  1.000000  1.000000
 FoFCou: FMM=F IPFlag=           0 FMFlag=      100000 FMFlg1=           0
         NFxFlg=           0 DoJE=T BraDBF=F KetDBF=T FulRan=T
         wScrn=  0.000000 ICntrl=       500 IOpCl=  0 I1Cent=   200000004 NGrid=           0
         NMat0=    1 NMatS0=      1 NMatT0=    0 NMatD0=    1 NMtDS0=    0 NMtDT0=    0
 Petite list used in FoFCou.
 Harris En= -769.691960244648    
 JPrj=0 DoOrth=F DoCkMO=F.
 Leave Link  401 at Wed Mar 20 15:32:27 2024, MaxMem=120795955200 cpu:             272.8 elap:               2.3
 (Enter /apps/gaussian/g16-c01-avx2/g16/l502.exe)
 Integral symmetry usage will be decided dynamically.
 Closed shell SCF:
 Using DIIS extrapolation, IDIIS=  1040.
 NGot=120795955200 LenX=120794211690 LenY=120793400790
 Requested convergence on RMS density matrix=1.00D-08 within 128 cycles.
 Requested convergence on MAX density matrix=1.00D-06.
 Requested convergence on             energy=1.00D-06.
 No special actions if energy rises.
 Fock matrices will be formed incrementally for  20 cycles.
 Integral accuracy reduced to 1.0D-05 until final iterations.

 Cycle   1  Pass 0  IDiag  1:
 FoFJK:  IHMeth= 1 ICntrl=       0 DoSepK=F KAlg= 0 I1Cent=           0 FoldK=F
 IRaf= 820000000 NMat=       1 IRICut=       1 DoRegI=T DoRafI=F ISym2E= 0 IDoP0=0 IntGTp=1.
 FoFCou: FMM=F IPFlag=           0 FMFlag=      100000 FMFlg1=           0
         NFxFlg=           0 DoJE=F BraDBF=F KetDBF=F FulRan=T
         wScrn=  0.000000 ICntrl=         0 IOpCl=  0 I1Cent=           0 NGrid=           0
         NMat0=    1 NMatS0=      1 NMatT0=    0 NMatD0=    1 NMtDS0=    0 NMtDT0=    0
 Symmetry not used in FoFCou.
 E= -769.249294347834    
 DIIS: error= 3.06D-02 at cycle   1 NSaved=   1.
 NSaved= 1 IEnMin= 1 EnMin= -769.249294347834     IErMin= 1 ErrMin= 3.06D-02
 ErrMax= 3.06D-02  0.00D+00 EMaxC= 1.00D-01 BMatC= 4.06D-01 BMatP= 4.06D-01
 IDIUse=3 WtCom= 6.94D-01 WtEn= 3.06D-01
 Coeff-Com:  0.100D+01
 Coeff-En:   0.100D+01
 Coeff:      0.100D+01
 Gap=     0.100 Goal=   None    Shift=    0.000
 GapD=    0.100 DampG=0.500 DampE=0.500 DampFc=0.2500 IDamp=-1.
 Damping current iteration by 2.50D-01
 RMSDP=2.77D+02 MaxDP=2.17D+04              OVMax= 9.97D-01

 Problem detected with inexpensive integrals.
 Switching to full accuracy and repeating last cycle.
 Cycle   2  Pass 1  IDiag  1:
 E= -769.249383535466     Delta-E=       -0.000089187633 Rises=F Damp=F
 DIIS: error= 3.06D-02 at cycle   1 NSaved=   1.
 NSaved= 1 IEnMin= 1 EnMin= -769.249383535466     IErMin= 1 ErrMin= 3.06D-02
 ErrMax= 3.06D-02  0.00D+00 EMaxC= 1.00D-01 BMatC= 4.06D-01 BMatP= 4.06D-01
 IDIUse=3 WtCom= 6.94D-01 WtEn= 3.06D-01
 Coeff-Com:  0.100D+01
 Coeff-En:   0.100D+01
 Coeff:      0.100D+01
 Gap=     0.100 Goal=   None    Shift=    0.000
 GapD=    0.100 DampG=0.500 DampE=0.500 DampFc=0.2500 IDamp=-1.
 Damping current iteration by 2.50D-01
 RMSDP=1.76D-03 MaxDP=5.54D-02 DE=-8.92D-05 OVMax= 1.60D-01

 Cycle   3  Pass 1  IDiag  1:
 RMSU=  4.30D-04    CP:  9.84D-01
 E= -769.392930421117     Delta-E=       -0.143546885651 Rises=F Damp=T
 DIIS: error= 1.70D-02 at cycle   2 NSaved=   2.
 NSaved= 2 IEnMin= 2 EnMin= -769.392930421117     IErMin= 2 ErrMin= 1.70D-02
 ErrMax= 1.70D-02  0.00D+00 EMaxC= 1.00D-01 BMatC= 1.28D-01 BMatP= 4.06D-01
 IDIUse=3 WtCom= 8.30D-01 WtEn= 1.70D-01
 Coeff-Com: -0.111D+01 0.211D+01
 Coeff-En:   0.000D+00 0.100D+01
 Coeff:     -0.918D+00 0.192D+01
 Gap=     0.106 Goal=   None    Shift=    0.000
 GapD=    0.106 DampG=1.000 DampE=0.500 DampFc=0.5000 IDamp=-1.
 Damping current iteration by 5.00D-01
 RMSDP=6.40D-04 MaxDP=1.93D-02 DE=-1.44D-01 OVMax= 9.22D-02

 Cycle   4  Pass 1  IDiag  1:
 RMSU=  2.76D-04    CP:  9.69D-01  1.32D+00
 E= -769.534540823842     Delta-E=       -0.141610402725 Rises=F Damp=T
 DIIS: error= 8.18D-03 at cycle   3 NSaved=   3.
 NSaved= 3 IEnMin= 3 EnMin= -769.534540823842     IErMin= 3 ErrMin= 8.18D-03
 ErrMax= 8.18D-03  0.00D+00 EMaxC= 1.00D-01 BMatC= 3.19D-02 BMatP= 1.28D-01
 IDIUse=3 WtCom= 9.18D-01 WtEn= 8.18D-02
 Coeff-Com: -0.339D+00-0.860D-01 0.142D+01
 Coeff-En:   0.000D+00 0.000D+00 0.100D+01
 Coeff:     -0.311D+00-0.790D-01 0.139D+01
 Gap=     0.102 Goal=   None    Shift=    0.000
 RMSDP=3.51D-04 MaxDP=1.17D-02 DE=-1.42D-01 OVMax= 3.68D-02

 Cycle   5  Pass 1  IDiag  1:
 RMSU=  1.81D-04    CP:  9.52D-01  1.62D+00  1.94D+00
 E= -769.655142808942     Delta-E=       -0.120601985100 Rises=F Damp=F
 DIIS: error= 4.36D-03 at cycle   4 NSaved=   4.
 NSaved= 4 IEnMin= 4 EnMin= -769.655142808942     IErMin= 4 ErrMin= 4.36D-03
 ErrMax= 4.36D-03  0.00D+00 EMaxC= 1.00D-01 BMatC= 4.08D-03 BMatP= 3.19D-02
 IDIUse=3 WtCom= 9.56D-01 WtEn= 4.36D-02
 Coeff-Com: -0.104D+00-0.261D+00 0.915D+00 0.450D+00
 Coeff-En:   0.000D+00 0.000D+00 0.000D+00 0.100D+01
 Coeff:     -0.992D-01-0.250D+00 0.876D+00 0.474D+00
 Gap=     0.103 Goal=   None    Shift=    0.000
 RMSDP=9.04D-05 MaxDP=4.72D-03 DE=-1.21D-01 OVMax= 2.50D-02

 Cycle   6  Pass 1  IDiag  1:
 RMSU=  7.37D-05    CP:  9.53D-01  1.60D+00  1.99D+00  7.29D-01
 E= -769.659070071498     Delta-E=       -0.003927262556 Rises=F Damp=F
 DIIS: error= 1.71D-03 at cycle   5 NSaved=   5.
 NSaved= 5 IEnMin= 5 EnMin= -769.659070071498     IErMin= 5 ErrMin= 1.71D-03
 ErrMax= 1.71D-03  0.00D+00 EMaxC= 1.00D-01 BMatC= 5.10D-04 BMatP= 4.08D-03
 IDIUse=3 WtCom= 9.83D-01 WtEn= 1.71D-02
 Coeff-Com: -0.134D-01-0.115D+00 0.282D+00 0.294D+00 0.553D+00
 Coeff-En:   0.000D+00 0.000D+00 0.000D+00 0.140D+00 0.860D+00
 Coeff:     -0.132D-01-0.113D+00 0.277D+00 0.291D+00 0.558D+00
 Gap=     0.102 Goal=   None    Shift=    0.000
 RMSDP=3.16D-05 MaxDP=1.67D-03 DE=-3.93D-03 OVMax= 1.03D-02

 Cycle   7  Pass 1  IDiag  1:
 RMSU=  1.84D-05    CP:  9.53D-01  1.60D+00  2.01D+00  7.80D-01  6.81D-01
 E= -769.659579883645     Delta-E=       -0.000509812147 Rises=F Damp=F
 DIIS: error= 5.57D-04 at cycle   6 NSaved=   6.
 NSaved= 6 IEnMin= 6 EnMin= -769.659579883645     IErMin= 6 ErrMin= 5.57D-04
 ErrMax= 5.57D-04  0.00D+00 EMaxC= 1.00D-01 BMatC= 7.14D-05 BMatP= 5.10D-04
 IDIUse=3 WtCom= 9.94D-01 WtEn= 5.57D-03
 Coeff-Com:  0.117D-02-0.609D-01 0.118D+00 0.164D+00 0.377D+00 0.401D+00
 Coeff-En:   0.000D+00 0.000D+00 0.000D+00 0.000D+00 0.787D-01 0.921D+00
 Coeff:      0.117D-02-0.605D-01 0.117D+00 0.163D+00 0.375D+00 0.404D+00
 Gap=     0.103 Goal=   None    Shift=    0.000
 RMSDP=9.53D-06 MaxDP=4.96D-04 DE=-5.10D-04 OVMax= 3.12D-03

 Cycle   8  Pass 1  IDiag  1:
 RMSU=  7.70D-06    CP:  9.53D-01  1.61D+00  2.01D+00  7.77D-01  7.33D-01
                    CP:  7.93D-01
 E= -769.659650819205     Delta-E=       -0.000070935560 Rises=F Damp=F
 DIIS: error= 1.19D-04 at cycle   7 NSaved=   7.
 NSaved= 7 IEnMin= 7 EnMin= -769.659650819205     IErMin= 7 ErrMin= 1.19D-04
 ErrMax= 1.19D-04  0.00D+00 EMaxC= 1.00D-01 BMatC= 3.75D-06 BMatP= 7.14D-05
 IDIUse=3 WtCom= 9.99D-01 WtEn= 1.19D-03
 Coeff-Com:  0.155D-02-0.278D-01 0.503D-01 0.760D-01 0.184D+00 0.251D+00
 Coeff-Com:  0.465D+00
 Coeff-En:   0.000D+00 0.000D+00 0.000D+00 0.000D+00 0.000D+00 0.000D+00
 Coeff-En:   0.100D+01
 Coeff:      0.155D-02-0.277D-01 0.502D-01 0.759D-01 0.184D+00 0.251D+00
 Coeff:      0.466D+00
 Gap=     0.103 Goal=   None    Shift=    0.000
 RMSDP=2.51D-06 MaxDP=1.04D-04 DE=-7.09D-05 OVMax= 5.72D-04

 Cycle   9  Pass 1  IDiag  1:
 RMSU=  2.05D-06    CP:  9.53D-01  1.61D+00  2.01D+00  7.77D-01  7.29D-01
                    CP:  8.04D-01  8.34D-01
 E= -769.659654607648     Delta-E=       -0.000003788443 Rises=F Damp=F
 DIIS: error= 3.81D-05 at cycle   8 NSaved=   8.
 NSaved= 8 IEnMin= 8 EnMin= -769.659654607648     IErMin= 8 ErrMin= 3.81D-05
 ErrMax= 3.81D-05  0.00D+00 EMaxC= 1.00D-01 BMatC= 3.93D-07 BMatP= 3.75D-06
 IDIUse=1 WtCom= 1.00D+00 WtEn= 0.00D+00
 Coeff-Com:  0.959D-03-0.516D-02 0.706D-02 0.130D-01 0.342D-01 0.714D-01
 Coeff-Com:  0.277D+00 0.602D+00
 Coeff:      0.959D-03-0.516D-02 0.706D-02 0.130D-01 0.342D-01 0.714D-01
 Coeff:      0.277D+00 0.602D+00
 Gap=     0.103 Goal=   None    Shift=    0.000
 RMSDP=7.54D-07 MaxDP=3.14D-05 DE=-3.79D-06 OVMax= 1.39D-04

 Cycle  10  Pass 1  IDiag  1:
 RMSU=  6.73D-07    CP:  9.53D-01  1.61D+00  2.01D+00  7.78D-01  7.30D-01
                    CP:  8.06D-01  8.57D-01  9.17D-01
 E= -769.659654983340     Delta-E=       -0.000000375691 Rises=F Damp=F
 DIIS: error= 3.42D-06 at cycle   9 NSaved=   9.
 NSaved= 9 IEnMin= 9 EnMin= -769.659654983340     IErMin= 9 ErrMin= 3.42D-06
 ErrMax= 3.42D-06  0.00D+00 EMaxC= 1.00D-01 BMatC= 5.55D-09 BMatP= 3.93D-07
 IDIUse=1 WtCom= 1.00D+00 WtEn= 0.00D+00
 Coeff-Com:  0.207D-03-0.484D-03 0.256D-03 0.110D-02 0.346D-02 0.119D-01
 Coeff-Com:  0.697D-01 0.186D+00 0.728D+00
 Coeff:      0.207D-03-0.484D-03 0.256D-03 0.110D-02 0.346D-02 0.119D-01
 Coeff:      0.697D-01 0.186D+00 0.728D+00
 Gap=     0.103 Goal=   None    Shift=    0.000
 RMSDP=1.41D-07 MaxDP=6.92D-06 DE=-3.76D-07 OVMax= 2.12D-05

 Cycle  11  Pass 1  IDiag  1:
 RMSU=  1.05D-07    CP:  9.53D-01  1.61D+00  2.01D+00  7.78D-01  7.31D-01
                    CP:  8.09D-01  8.60D-01  9.19D-01  9.38D-01
 E= -769.659654987016     Delta-E=       -0.000000003676 Rises=F Damp=F
 DIIS: error= 2.07D-06 at cycle  10 NSaved=  10.
 NSaved=10 IEnMin=10 EnMin= -769.659654987016     IErMin=10 ErrMin= 2.07D-06
 ErrMax= 2.07D-06  0.00D+00 EMaxC= 1.00D-01 BMatC= 1.65D-09 BMatP= 5.55D-09
 IDIUse=1 WtCom= 1.00D+00 WtEn= 0.00D+00
 Coeff-Com:  0.315D-04 0.113D-03-0.345D-03-0.298D-03-0.530D-03 0.979D-03
 Coeff-Com:  0.155D-01 0.498D-01 0.391D+00 0.544D+00
 Coeff:      0.315D-04 0.113D-03-0.345D-03-0.298D-03-0.530D-03 0.979D-03
 Coeff:      0.155D-01 0.498D-01 0.391D+00 0.544D+00
 Gap=     0.103 Goal=   None    Shift=    0.000
 RMSDP=5.25D-08 MaxDP=3.31D-06 DE=-3.68D-09 OVMax= 9.63D-06

 Cycle  12  Pass 1  IDiag  1:
 RMSU=  3.64D-08    CP:  9.53D-01  1.61D+00  2.01D+00  7.78D-01  7.31D-01
                    CP:  8.10D-01  8.62D-01  9.15D-01  9.41D-01  7.51D-01
 E= -769.659654988524     Delta-E=       -0.000000001508 Rises=F Damp=F
 DIIS: error= 2.50D-07 at cycle  11 NSaved=  11.
 NSaved=11 IEnMin=11 EnMin= -769.659654988524     IErMin=11 ErrMin= 2.50D-07
 ErrMax= 2.50D-07  0.00D+00 EMaxC= 1.00D-01 BMatC= 5.00D-11 BMatP= 1.65D-09
 IDIUse=1 WtCom= 1.00D+00 WtEn= 0.00D+00
 Coeff-Com: -0.853D-05 0.845D-04-0.147D-03-0.180D-03-0.424D-03-0.416D-03
 Coeff-Com:  0.123D-03 0.391D-02 0.861D-01 0.200D+00 0.711D+00
 Coeff:     -0.853D-05 0.845D-04-0.147D-03-0.180D-03-0.424D-03-0.416D-03
 Coeff:      0.123D-03 0.391D-02 0.861D-01 0.200D+00 0.711D+00
 Gap=     0.103 Goal=   None    Shift=    0.000
 RMSDP=1.50D-08 MaxDP=5.22D-07 DE=-1.51D-09 OVMax= 3.09D-06

 Cycle  13  Pass 1  IDiag  1:
 RMSU=  1.36D-08    CP:  9.53D-01  1.61D+00  2.01D+00  7.78D-01  7.31D-01
                    CP:  8.10D-01  8.62D-01  9.17D-01  9.47D-01  7.69D-01
                    CP:  9.60D-01
 E= -769.659654988576     Delta-E=       -0.000000000053 Rises=F Damp=F
 DIIS: error= 1.80D-07 at cycle  12 NSaved=  12.
 NSaved=12 IEnMin=12 EnMin= -769.659654988576     IErMin=12 ErrMin= 1.80D-07
 ErrMax= 1.80D-07  0.00D+00 EMaxC= 1.00D-01 BMatC= 1.24D-11 BMatP= 5.00D-11
 IDIUse=1 WtCom= 1.00D+00 WtEn= 0.00D+00
 Coeff-Com: -0.749D-05 0.441D-04-0.664D-04-0.896D-04-0.222D-03-0.296D-03
 Coeff-Com: -0.110D-02-0.107D-02 0.248D-01 0.826D-01 0.406D+00 0.489D+00
 Coeff:     -0.749D-05 0.441D-04-0.664D-04-0.896D-04-0.222D-03-0.296D-03
 Coeff:     -0.110D-02-0.107D-02 0.248D-01 0.826D-01 0.406D+00 0.489D+00
 Gap=     0.103 Goal=   None    Shift=    0.000
 RMSDP=5.70D-09 MaxDP=3.00D-07 DE=-5.28D-11 OVMax= 2.00D-06

 SCF Done:  E(RB3LYP) =  -769.659654989     A.U. after   13 cycles
            NFock= 13  Conv=0.57D-08     -V/T= 2.0059
 KE= 7.651170825973D+02 PE=-4.526813556275D+03 EE= 1.620883258833D+03
 Leave Link  502 at Wed Mar 20 15:34:53 2024, MaxMem=120795955200 cpu:           18468.2 elap:             145.8
 (Enter /apps/gaussian/g16-c01-avx2/g16/l601.exe)
 Copying SCF densities to generalized density rwf, IOpCl= 0 IROHF=0.

 **********************************************************************

            Population analysis using the SCF Density.

 **********************************************************************

 Orbital symmetries:
       Occupied  (A) (A) (A) (A) (A) (A) (A) (A) (A) (A) (A) (A)
                 (A) (A) (A) (A) (A) (A) (A) (A) (A) (A) (A) (A)
                 (A) (A) (A) (A) (A) (A) (A) (A) (A) (A) (A) (A)
                 (A) (A) (A) (A) (A) (A) (A) (A) (A) (A) (A) (A)
                 (A) (A) (A) (A) (A) (A) (A) (A) (A) (A) (A) (A)
                 (A) (A) (A) (A) (A) (A)
       Virtual   (A) (A) (A) (A) (A) (A) (A) (A) (A) (A) (A) (A)
                 (A) (A) (A) (A) (A) (A) (A) (A) (A) (A) (A) (A)
                 (A) (A) (A) (A) (A) (A) (A) (A) (A) (A) (A) (A)
                 (A) (A) (A) (A) (A) (A) (A) (A) (A) (A) (A) (A)
                 (A) (A) (A) (A) (A) (A) (A) (A) (A) (A) (A) (A)
                 (A) (A) (A) (A) (A) (A) (A) (A) (A) (A) (A) (A)
                 (A) (A) (A) (A) (A) (A) (A) (A) (A) (A) (A) (A)
                 (A) (A) (A) (A) (A) (A) (A) (A) (A) (A) (A) (A)
                 (A) (A) (A) (A) (A) (A) (A) (A) (A) (A) (A) (A)
                 (A) (A) (A) (A) (A) (A) (A) (A) (A) (A) (A) (A)
                 (A) (A) (A) (A) (A) (A) (A) (A) (A) (A) (A) (A)
                 (A) (A) (A) (A) (A) (A) (A) (A) (A) (A) (A) (A)
                 (A) (A) (A) (A) (A) (A) (A) (A) (A) (A) (A) (A)
                 (A) (A) (A) (A) (A) (A) (A) (A) (A) (A) (A) (A)
                 (A) (A) (A) (A) (A) (A) (A) (A) (A) (A) (A) (A)
                 (A) (A) (A) (A) (A) (A) (A) (A) (A) (A) (A) (A)
                 (A) (A) (A) (A) (A) (A) (A) (A) (A) (A) (A) (A)
                 (A) (A) (A) (A) (A) (A) (A) (A) (A) (A) (A) (A)
                 (A) (A) (A) (A) (A) (A) (A) (A) (A) (A) (A) (A)
                 (A) (A) (A) (A) (A) (A) (A) (A) (A) (A) (A) (A)
                 (A) (A) (A) (A) (A) (A) (A) (A) (A) (A) (A) (A)
                 (A) (A) (A) (A) (A) (A) (A) (A) (A) (A) (A) (A)
                 (A) (A) (A) (A) (A) (A) (A) (A) (A) (A) (A) (A)
                 (A) (A) (A) (A) (A) (A) (A) (A) (A) (A) (A) (A)
                 (A) (A) (A) (A) (A) (A) (A) (A) (A) (A) (A) (A)
                 (A) (A) (A) (A) (A) (A) (A) (A) (A) (A) (A) (A)
                 (A) (A) (A) (A) (A) (A) (A) (A) (A) (A) (A) (A)
                 (A) (A) (A) (A) (A) (A) (A) (A) (A) (A) (A) (A)
                 (A) (A) (A) (A) (A) (A) (A) (A) (A) (A) (A) (A)
                 (A) (A) (A) (A) (A) (A) (A) (A) (A) (A) (A) (A)
                 (A) (A) (A) (A) (A) (A) (A) (A) (A) (A) (A) (A)
                 (A) (A) (A) (A) (A) (A) (A) (A) (A) (A) (A) (A)
                 (A) (A) (A) (A) (A) (A) (A) (A) (A) (A) (A) (A)
                 (A) (A) (A) (A) (A) (A) (A) (A) (A) (A) (A) (A)
                 (A) (A) (A) (A) (A) (A) (A) (A) (A) (A) (A) (A)
                 (A) (A) (A) (A) (A) (A) (A) (A) (A) (A) (A) (A)
                 (A) (A) (A) (A) (A) (A) (A) (A) (A) (A) (A) (A)
                 (A) (A) (A) (A) (A) (A) (A) (A) (A) (A) (A) (A)
                 (A) (A) (A) (A) (A) (A) (A) (A) (A) (A) (A) (A)
                 (A) (A) (A) (A) (A) (A) (A) (A) (A) (A) (A) (A)
                 (A) (A) (A) (A) (A) (A) (A) (A) (A) (A) (A) (A)
                 (A) (A) (A) (A) (A) (A) (A) (A) (A) (A) (A) (A)
                 (A) (A) (A) (A) (A) (A) (A) (A) (A) (A) (A) (A)
                 (A) (A) (A) (A) (A) (A) (A) (A) (A) (A) (A) (A)
                 (A) (A) (A) (A) (A) (A) (A) (A) (A) (A) (A) (A)
                 (A) (A) (A) (A) (A) (A) (A) (A) (A) (A) (A) (A)
                 (A) (A) (A) (A) (A) (A) (A) (A) (A) (A) (A) (A)
                 (A) (A) (A) (A) (A) (A) (A) (A) (A) (A) (A) (A)
                 (A) (A) (A) (A) (A) (A) (A) (A) (A) (A) (A) (A)
                 (A) (A) (A) (A) (A) (A) (A) (A) (A) (A) (A) (A)
                 (A) (A) (A) (A) (A) (A) (A) (A) (A) (A) (A) (A)
                 (A) (A) (A) (A) (A) (A) (A) (A) (A) (A) (A) (A)
                 (A) (A) (A) (A) (A) (A) (A) (A) (A) (A) (A) (A)
                 (A) (A) (A) (A) (A) (A) (A) (A) (A) (A) (A) (A)
                 (A) (A) (A) (A) (A) (A) (A) (A) (A) (A) (A) (A)
                 (A) (A) (A) (A) (A) (A) (A) (A) (A) (A) (A) (A)
                 (A) (A) (A) (A) (A) (A) (A) (A) (A) (A) (A) (A)
                 (A) (A) (A) (A) (A) (A) (A) (A) (A) (A) (A) (A)
                 (A) (A) (A) (A) (A) (A) (A) (A) (A) (A) (A) (A)
                 (A) (A) (A) (A) (A) (A) (A) (A) (A) (A) (A) (A)
                 (A) (A)
 The electronic state is 1-A.
 Alpha  occ. eigenvalues --  -10.19196 -10.19186 -10.19140 -10.19118 -10.19099
 Alpha  occ. eigenvalues --  -10.19063 -10.19000 -10.18947 -10.18608 -10.18596
 Alpha  occ. eigenvalues --  -10.18566 -10.18557 -10.18529 -10.18510 -10.18504
 Alpha  occ. eigenvalues --  -10.18498 -10.18254 -10.18230 -10.18224 -10.18218
 Alpha  occ. eigenvalues --   -0.90244  -0.87117  -0.84382  -0.81602  -0.81445
 Alpha  occ. eigenvalues --   -0.75978  -0.75620  -0.74676  -0.74033  -0.69415
 Alpha  occ. eigenvalues --   -0.64958  -0.64397  -0.63363  -0.61137  -0.59620
 Alpha  occ. eigenvalues --   -0.54978  -0.54437  -0.53881  -0.51278  -0.49416
 Alpha  occ. eigenvalues --   -0.48511  -0.47436  -0.46937  -0.45613  -0.43925
 Alpha  occ. eigenvalues --   -0.42623  -0.42462  -0.42263  -0.42202  -0.41297
 Alpha  occ. eigenvalues --   -0.38979  -0.38822  -0.38552  -0.37525  -0.36346
 Alpha  occ. eigenvalues --   -0.36114  -0.35808  -0.32690  -0.32576  -0.32538
 Alpha  occ. eigenvalues --   -0.32351  -0.26461  -0.26000  -0.25742  -0.25195
 Alpha  occ. eigenvalues --   -0.19026
 Alpha virt. eigenvalues --   -0.08768  -0.03898  -0.02553  -0.01228  -0.01125
 Alpha virt. eigenvalues --    0.03855   0.05099   0.05259   0.05602   0.05618
 Alpha virt. eigenvalues --    0.06772   0.06923   0.08577   0.09026   0.09855
 Alpha virt. eigenvalues --    0.10390   0.11417   0.11655   0.11957   0.12775
 Alpha virt. eigenvalues --    0.13329   0.14547   0.15456   0.16363   0.16396
 Alpha virt. eigenvalues --    0.17828   0.18569   0.19061   0.19609   0.19761
 Alpha virt. eigenvalues --    0.20254   0.20437   0.20961   0.21751   0.22807
 Alpha virt. eigenvalues --    0.22903   0.23123   0.23514   0.23543   0.24061
 Alpha virt. eigenvalues --    0.24179   0.24357   0.24795   0.25785   0.25815
 Alpha virt. eigenvalues --    0.26965   0.26999   0.27139   0.27999   0.28409
 Alpha virt. eigenvalues --    0.28419   0.28785   0.29273   0.30013   0.32263
 Alpha virt. eigenvalues --    0.32482   0.32944   0.33341   0.33554   0.33583
 Alpha virt. eigenvalues --    0.34606   0.34862   0.35373   0.35882   0.36469
 Alpha virt. eigenvalues --    0.36541   0.36965   0.37169   0.37621   0.38317
 Alpha virt. eigenvalues --    0.38710   0.39178   0.39426   0.39612   0.40480
 Alpha virt. eigenvalues --    0.40607   0.40817   0.42079   0.42929   0.43404
 Alpha virt. eigenvalues --    0.44185   0.44390   0.44493   0.45018   0.46663
 Alpha virt. eigenvalues --    0.46802   0.47466   0.47728   0.47800   0.48337
 Alpha virt. eigenvalues --    0.48620   0.49724   0.49997   0.51497   0.51843
 Alpha virt. eigenvalues --    0.52630   0.53031   0.53618   0.53876   0.54932
 Alpha virt. eigenvalues --    0.55511   0.55638   0.57345   0.59206   0.59593
 Alpha virt. eigenvalues --    0.60316   0.60734   0.61273   0.61633   0.61669
 Alpha virt. eigenvalues --    0.62055   0.63658   0.63914   0.64387   0.64471
 Alpha virt. eigenvalues --    0.64774   0.65027   0.65092   0.65800   0.67079
 Alpha virt. eigenvalues --    0.67374   0.68680   0.68720   0.69112   0.69520
 Alpha virt. eigenvalues --    0.70237   0.71368   0.71693   0.71928   0.72277
 Alpha virt. eigenvalues --    0.72389   0.72667   0.72754   0.74087   0.74341
 Alpha virt. eigenvalues --    0.75175   0.76150   0.76196   0.76692   0.76822
 Alpha virt. eigenvalues --    0.78220   0.78383   0.78792   0.79531   0.81096
 Alpha virt. eigenvalues --    0.81329   0.82729   0.82830   0.83565   0.85611
 Alpha virt. eigenvalues --    0.86117   0.86473   0.86686   0.86800   0.88327
 Alpha virt. eigenvalues --    0.88389   0.88875   0.89557   0.90103   0.90150
 Alpha virt. eigenvalues --    0.91028   0.91238   0.91923   0.92069   0.94046
 Alpha virt. eigenvalues --    0.94529   0.95139   0.96065   0.96986   0.98373
 Alpha virt. eigenvalues --    0.99068   0.99815   1.00566   1.01010   1.01236
 Alpha virt. eigenvalues --    1.02116   1.03753   1.04154   1.04428   1.05490
 Alpha virt. eigenvalues --    1.05575   1.06517   1.08198   1.10309   1.10917
 Alpha virt. eigenvalues --    1.11791   1.12594   1.12686   1.13228   1.13698
 Alpha virt. eigenvalues --    1.14298   1.14666   1.15952   1.17209   1.17474
 Alpha virt. eigenvalues --    1.18061   1.18967   1.19043   1.19286   1.19637
 Alpha virt. eigenvalues --    1.20684   1.20987   1.21159   1.21968   1.24775
 Alpha virt. eigenvalues --    1.24957   1.25209   1.25392   1.27508   1.27934
 Alpha virt. eigenvalues --    1.28533   1.28666   1.29177   1.30745   1.31516
 Alpha virt. eigenvalues --    1.32287   1.32338   1.32501   1.32704   1.33473
 Alpha virt. eigenvalues --    1.34355   1.34409   1.35339   1.35787   1.37115
 Alpha virt. eigenvalues --    1.37488   1.38326   1.38973   1.39731   1.39860
 Alpha virt. eigenvalues --    1.39873   1.40956   1.41813   1.43372   1.43782
 Alpha virt. eigenvalues --    1.43977   1.45679   1.46015   1.46656   1.46817
 Alpha virt. eigenvalues --    1.48092   1.48297   1.48999   1.49321   1.49972
 Alpha virt. eigenvalues --    1.50282   1.50585   1.52346   1.52499   1.53035
 Alpha virt. eigenvalues --    1.54397   1.56585   1.57993   1.58229   1.59909
 Alpha virt. eigenvalues --    1.60014   1.60215   1.60794   1.64518   1.64705
 Alpha virt. eigenvalues --    1.65318   1.66404   1.66524   1.66817   1.67290
 Alpha virt. eigenvalues --    1.67469   1.67747   1.68660   1.70577   1.71200
 Alpha virt. eigenvalues --    1.72257   1.72643   1.73761   1.74296   1.77202
 Alpha virt. eigenvalues --    1.77771   1.78164   1.79089   1.79359   1.79844
 Alpha virt. eigenvalues --    1.80083   1.80970   1.81925   1.84795   1.85766
 Alpha virt. eigenvalues --    1.86957   1.88057   1.88924   1.90033   1.92559
 Alpha virt. eigenvalues --    1.96749   1.96979   1.98562   1.98846   1.99741
 Alpha virt. eigenvalues --    2.00892   2.00990   2.02022   2.02539   2.03611
 Alpha virt. eigenvalues --    2.05596   2.05793   2.08502   2.08966   2.09888
 Alpha virt. eigenvalues --    2.11129   2.12538   2.13159   2.13313   2.14194
 Alpha virt. eigenvalues --    2.14871   2.15117   2.17692   2.19683   2.20289
 Alpha virt. eigenvalues --    2.23795   2.25805   2.25968   2.26250   2.26426
 Alpha virt. eigenvalues --    2.26599   2.27280   2.28397   2.29577   2.29788
 Alpha virt. eigenvalues --    2.30128   2.30676   2.32167   2.34398   2.35472
 Alpha virt. eigenvalues --    2.38312   2.38498   2.39839   2.40672   2.40960
 Alpha virt. eigenvalues --    2.42947   2.43550   2.47377   2.48145   2.49661
 Alpha virt. eigenvalues --    2.50677   2.54890   2.56150   2.56459   2.57226
 Alpha virt. eigenvalues --    2.59960   2.61309   2.61771   2.62116   2.62832
 Alpha virt. eigenvalues --    2.62987   2.65575   2.68047   2.68216   2.69117
 Alpha virt. eigenvalues --    2.69385   2.69463   2.70964   2.71428   2.71642
 Alpha virt. eigenvalues --    2.71946   2.73427   2.73660   2.73824   2.75036
 Alpha virt. eigenvalues --    2.76005   2.79346   2.79555   2.80388   2.81018
 Alpha virt. eigenvalues --    2.81941   2.83796   2.85267   2.85671   2.85873
 Alpha virt. eigenvalues --    2.86168   2.87099   2.87191   2.88388   2.88618
 Alpha virt. eigenvalues --    2.88947   2.89822   2.90602   2.91801   2.92381
 Alpha virt. eigenvalues --    2.92701   2.93998   2.94256   2.94495   2.95488
 Alpha virt. eigenvalues --    2.95847   2.95879   2.96582   2.96955   2.97030
 Alpha virt. eigenvalues --    2.98012   2.98663   2.99593   3.00730   3.00808
 Alpha virt. eigenvalues --    3.01000   3.01170   3.02052   3.02285   3.02331
 Alpha virt. eigenvalues --    3.02816   3.03134   3.03466   3.03490   3.04334
 Alpha virt. eigenvalues --    3.05711   3.06211   3.07252   3.08159   3.09086
 Alpha virt. eigenvalues --    3.09680   3.10705   3.11042   3.11692   3.12366
 Alpha virt. eigenvalues --    3.13520   3.14367   3.14960   3.15046   3.15231
 Alpha virt. eigenvalues --    3.15714   3.16066   3.16946   3.17515   3.18418
 Alpha virt. eigenvalues --    3.18470   3.18479   3.21403   3.21769   3.22261
 Alpha virt. eigenvalues --    3.22880   3.23092   3.23358   3.23623   3.23845
 Alpha virt. eigenvalues --    3.25074   3.26357   3.26471   3.28030   3.28542
 Alpha virt. eigenvalues --    3.28818   3.30320   3.31060   3.31308   3.31621
 Alpha virt. eigenvalues --    3.33285   3.33507   3.34013   3.35232   3.35358
 Alpha virt. eigenvalues --    3.35725   3.36170   3.36875   3.37730   3.37867
 Alpha virt. eigenvalues --    3.38120   3.39651   3.39925   3.41367   3.41471
 Alpha virt. eigenvalues --    3.41727   3.42087   3.42825   3.43459   3.44165
 Alpha virt. eigenvalues --    3.44451   3.44487   3.45753   3.46157   3.47123
 Alpha virt. eigenvalues --    3.48416   3.49011   3.49532   3.50639   3.51073
 Alpha virt. eigenvalues --    3.51358   3.52734   3.53283   3.53743   3.54722
 Alpha virt. eigenvalues --    3.56986   3.57103   3.57408   3.57485   3.57551
 Alpha virt. eigenvalues --    3.57983   3.58187   3.58577   3.59828   3.59973
 Alpha virt. eigenvalues --    3.60137   3.61065   3.62744   3.62770   3.63945
 Alpha virt. eigenvalues --    3.64332   3.64717   3.65727   3.67204   3.69445
 Alpha virt. eigenvalues --    3.69639   3.71314   3.71402   3.71579   3.71887
 Alpha virt. eigenvalues --    3.74222   3.75747   3.76274   3.76443   3.76796
 Alpha virt. eigenvalues --    3.77916   3.78085   3.79032   3.79763   3.79881
 Alpha virt. eigenvalues --    3.81385   3.82095   3.82115   3.83436   3.84394
 Alpha virt. eigenvalues --    3.85922   3.86359   3.86993   3.87531   3.89689
 Alpha virt. eigenvalues --    3.90001   3.91267   3.93061   3.93242   3.93797
 Alpha virt. eigenvalues --    3.94263   3.94530   3.95507   3.97801   3.98224
 Alpha virt. eigenvalues --    3.99711   4.01147   4.01690   4.01791   4.01802
 Alpha virt. eigenvalues --    4.02571   4.03131   4.03592   4.05232   4.06578
 Alpha virt. eigenvalues --    4.07999   4.08584   4.08853   4.09440   4.10560
 Alpha virt. eigenvalues --    4.11016   4.11369   4.11388   4.11925   4.12147
 Alpha virt. eigenvalues --    4.15126   4.16248   4.16431   4.16704   4.16722
 Alpha virt. eigenvalues --    4.17366   4.18236   4.19996   4.20228   4.20237
 Alpha virt. eigenvalues --    4.20741   4.21337   4.22719   4.23173   4.24466
 Alpha virt. eigenvalues --    4.24627   4.25962   4.26102   4.26719   4.28103
 Alpha virt. eigenvalues --    4.29446   4.29698   4.29867   4.30047   4.30374
 Alpha virt. eigenvalues --    4.31201   4.34982   4.35259   4.35266   4.35597
 Alpha virt. eigenvalues --    4.36993   4.38225   4.38665   4.39745   4.40126
 Alpha virt. eigenvalues --    4.40310   4.41035   4.42393   4.43058   4.45003
 Alpha virt. eigenvalues --    4.48608   4.52841   4.53685   4.54632   4.55385
 Alpha virt. eigenvalues --    4.57353   4.57583   4.60041   4.60795   4.61209
 Alpha virt. eigenvalues --    4.61691   4.63061   4.64027   4.64947   4.65317
 Alpha virt. eigenvalues --    4.65627   4.66648   4.67111   4.67307   4.67353
 Alpha virt. eigenvalues --    4.68289   4.70023   4.71013   4.71258   4.71923
 Alpha virt. eigenvalues --    4.71968   4.74738   4.78089   4.79471   4.80411
 Alpha virt. eigenvalues --    4.80956   4.83992   4.84625   4.85774   4.86219
 Alpha virt. eigenvalues --    4.88312   4.89333   4.93211   4.96614   4.97066
 Alpha virt. eigenvalues --    4.97851   5.00512   5.03672   5.04073   5.06420
 Alpha virt. eigenvalues --    5.07857   5.08700   5.09841   5.12331   5.13175
 Alpha virt. eigenvalues --    5.15997   5.16098   5.16976   5.18178   5.18557
 Alpha virt. eigenvalues --    5.18888   5.19433   5.19910   5.20552   5.23452
 Alpha virt. eigenvalues --    5.23502   5.24473   5.27064   5.29215   5.31396
 Alpha virt. eigenvalues --    5.31799   5.34218   5.35172   5.37278   5.37628
 Alpha virt. eigenvalues --    5.43615   5.44479   5.45253   5.47324   5.47846
 Alpha virt. eigenvalues --    5.50056   5.51967   5.54266   5.59730   5.60108
 Alpha virt. eigenvalues --    5.62071   5.62312   5.65524   5.67920   5.71509
 Alpha virt. eigenvalues --    5.77127   5.80290   5.82807   5.83253   5.86865
 Alpha virt. eigenvalues --    5.94673   5.95634   6.00635   6.02219   6.04959
 Alpha virt. eigenvalues --    6.16733   6.22670   6.24543   6.26619   6.45916
 Alpha virt. eigenvalues --    6.60071   6.95497  22.13482  23.02327  23.02827
 Alpha virt. eigenvalues --   23.03512  23.07389  23.11284  23.12483  23.15138
 Alpha virt. eigenvalues --   23.16091  23.16312  23.20710  23.28408  23.30742
 Alpha virt. eigenvalues --   23.33092  23.47562  23.60645  23.63441  23.76173
 Alpha virt. eigenvalues --   24.06732  24.51806
          Condensed to atoms (all electrons):
               1          2          3          4          5          6
     1  C    4.776535   0.506730  -0.059821  -0.034856  -0.063441   0.598210
     2  C    0.506730   4.936618   0.538875  -0.007248  -0.028498  -0.055032
     3  C   -0.059821   0.538875   5.057298   0.419627  -0.062244  -0.038656
     4  C   -0.034856  -0.007248   0.419627   5.151044   0.470150  -0.039183
     5  C   -0.063441  -0.028498  -0.062244   0.470150   4.908159   0.463761
     6  C    0.598210  -0.055032  -0.038656  -0.039183   0.463761   4.869083
     7  C    0.007294  -0.091761   0.282059  -0.047244   0.003281  -0.005250
     8  C   -0.006554   0.010522  -0.047734   0.422303  -0.057621   0.014583
     9  C    0.000257   0.000556  -0.032914  -0.044817   0.003758  -0.000322
    10  C   -0.001409   0.005948  -0.043033  -0.066691  -0.002991   0.000567
    11  C   -0.000023   0.000474  -0.000165   0.006666  -0.000867   0.000054
    12  C    0.000650  -0.002321   0.012144  -0.010621  -0.031337  -0.002057
    13  C   -0.000703   0.000653  -0.006674  -0.035808  -0.062400   0.006983
    14  C    0.006967  -0.002056   0.014773  -0.039648   0.460723  -0.070501
    15  H   -0.000888   0.000246  -0.001279   0.004610  -0.030270   0.003186
    16  H    0.000033  -0.000007   0.000346   0.004068   0.001940  -0.000890
    17  H    0.397428  -0.028301   0.000784   0.003773   0.001932  -0.019224
    18  H   -0.018965   0.004060   0.002122   0.004790  -0.029690   0.391134
    19  C    0.001271  -0.032645  -0.098156   0.005034  -0.000921  -0.000321
    20  C   -0.000052   0.001220   0.006509  -0.001244   0.000004   0.000009
    21  C    0.000012  -0.000235  -0.005239   0.000470  -0.000011  -0.000002
    22  C   -0.000007  -0.000843   0.004769  -0.003339   0.000463  -0.000004
    23  H   -0.000000   0.000054  -0.000996   0.000027  -0.000000  -0.000000
    24  H    0.000000   0.000009   0.000205  -0.000014   0.000000   0.000000
    25  C    0.000001  -0.000019   0.000271  -0.001342  -0.000000  -0.000003
    26  H   -0.000000   0.000000  -0.000006   0.000031  -0.000000   0.000000
    27  C   -0.000003   0.000048  -0.000361   0.000536  -0.000010  -0.000001
    28  H    0.000000  -0.000001   0.000037  -0.000015   0.000000  -0.000000
    29  H   -0.016810   0.397230  -0.013433   0.005497   0.002014   0.002417
    30  H    0.000332  -0.008375  -0.007142  -0.001074   0.000050  -0.000118
    31  H    0.000004   0.000018  -0.000661   0.004843   0.002205   0.000060
    32  H    0.000000  -0.000003  -0.000010  -0.000971   0.000060   0.000003
               7          8          9         10         11         12
     1  C    0.007294  -0.006554   0.000257  -0.001409  -0.000023   0.000650
     2  C   -0.091761   0.010522   0.000556   0.005948   0.000474  -0.002321
     3  C    0.282059  -0.047734  -0.032914  -0.043033  -0.000165   0.012144
     4  C   -0.047244   0.422303  -0.044817  -0.066691   0.006666  -0.010621
     5  C    0.003281  -0.057621   0.003758  -0.002991  -0.000867  -0.031337
     6  C   -0.005250   0.014583  -0.000322   0.000567   0.000054  -0.002057
     7  C    5.051478  -0.033426  -0.044754   0.418786   0.011769   0.000033
     8  C   -0.033426   5.044622   0.285684  -0.043450  -0.097104   0.546619
     9  C   -0.044754   0.285684   5.048268   0.415966   0.547473  -0.097238
    10  C    0.418786  -0.043450   0.415966   5.153685  -0.010865   0.006355
    11  C    0.011769  -0.097104   0.547473  -0.010865   4.936330  -0.032011
    12  C    0.000033   0.546619  -0.097238   0.006355  -0.032011   4.936933
    13  C    0.000196  -0.058811   0.006916  -0.001261   0.001124   0.503990
    14  C   -0.000273  -0.040212  -0.005074   0.000461  -0.000269  -0.052991
    15  H    0.000034   0.002198   0.000201  -0.000015   0.000008   0.004081
    16  H   -0.000005   0.000315  -0.000979   0.000029   0.000036  -0.028301
    17  H   -0.000920   0.000339  -0.000006   0.000033   0.000000  -0.000006
    18  H    0.000193  -0.001273   0.000036  -0.000016  -0.000001   0.000237
    19  C    0.549291   0.000094   0.012104  -0.009529  -0.002315   0.000518
    20  C   -0.059244   0.000198  -0.006511  -0.035584   0.000624  -0.000024
    21  C   -0.040488  -0.000321   0.014872  -0.039738  -0.001952   0.000055
    22  C   -0.059499   0.003970  -0.061125   0.474903  -0.030516  -0.000909
    23  H    0.000201  -0.000004   0.000341   0.004121  -0.000007   0.000000
    24  H    0.002257   0.000034  -0.001284   0.004497   0.000241  -0.000001
    25  C   -0.006529   0.006741  -0.059361  -0.035247   0.504259   0.001131
    26  H    0.000339  -0.000961   0.000388   0.004007  -0.028371   0.000034
    27  C    0.014580  -0.005045  -0.039659  -0.040040  -0.053343  -0.000272
    28  H   -0.001237   0.000193   0.002106   0.004630   0.004116   0.000008
    29  H   -0.010199  -0.000593  -0.000065  -0.001066  -0.000003   0.000019
    30  H   -0.005291   0.000006  -0.000639   0.005010   0.000017  -0.000003
    31  H   -0.000005  -0.006691  -0.007772  -0.001016  -0.006419   0.392458
    32  H   -0.000640  -0.007790  -0.006728   0.004807   0.392651  -0.006429
              13         14         15         16         17         18
     1  C   -0.000703   0.006967  -0.000888   0.000033   0.397428  -0.018965
     2  C    0.000653  -0.002056   0.000246  -0.000007  -0.028301   0.004060
     3  C   -0.006674   0.014773  -0.001279   0.000346   0.000784   0.002122
     4  C   -0.035808  -0.039648   0.004610   0.004068   0.003773   0.004790
     5  C   -0.062400   0.460723  -0.030270   0.001940   0.001932  -0.029690
     6  C    0.006983  -0.070501   0.003186  -0.000890  -0.019224   0.391134
     7  C    0.000196  -0.000273   0.000034  -0.000005  -0.000920   0.000193
     8  C   -0.058811  -0.040212   0.002198   0.000315   0.000339  -0.001273
     9  C    0.006916  -0.005074   0.000201  -0.000979  -0.000006   0.000036
    10  C   -0.001261   0.000461  -0.000015   0.000029   0.000033  -0.000016
    11  C    0.001124  -0.000269   0.000008   0.000036   0.000000  -0.000001
    12  C    0.503990  -0.052991   0.004081  -0.028301  -0.000006   0.000237
    13  C    4.785053   0.598082  -0.018581   0.397399   0.000032  -0.000863
    14  C    0.598082   4.871938   0.390973  -0.018718  -0.000891   0.003143
    15  H   -0.018581   0.390973   0.529342  -0.004607  -0.000049   0.007075
    16  H    0.397399  -0.018718  -0.004607   0.530554  -0.000001  -0.000047
    17  H    0.000032  -0.000891  -0.000049  -0.000001   0.530242  -0.004578
    18  H   -0.000863   0.003143   0.007075  -0.000047  -0.004578   0.528293
    19  C   -0.000026   0.000062  -0.000001   0.000000   0.000029   0.000009
    20  C    0.000001  -0.000003   0.000000  -0.000000  -0.000002   0.000000
    21  C   -0.000003  -0.000001  -0.000000   0.000000  -0.000000   0.000000
    22  C    0.000006  -0.000013   0.000000  -0.000000  -0.000000   0.000000
    23  H   -0.000000   0.000000  -0.000000   0.000000   0.000000  -0.000000
    24  H    0.000000  -0.000000   0.000000  -0.000000  -0.000000  -0.000000
    25  C   -0.000049   0.000009   0.000000  -0.000001  -0.000000   0.000000
    26  H   -0.000001  -0.000000  -0.000000   0.000000   0.000000  -0.000000
    27  C    0.000009  -0.000002   0.000000  -0.000000   0.000000  -0.000000
    28  H    0.000000   0.000000  -0.000000  -0.000000  -0.000000   0.000000
    29  H    0.000005   0.000059  -0.000002   0.000000  -0.001282  -0.000429
    30  H    0.000000   0.000003  -0.000000   0.000000  -0.000001   0.000001
    31  H   -0.019260   0.002309  -0.000467  -0.001220   0.000000  -0.000002
    32  H    0.000425  -0.000134   0.000001  -0.000000   0.000000  -0.000000
              19         20         21         22         23         24
     1  C    0.001271  -0.000052   0.000012  -0.000007  -0.000000   0.000000
[...]
   -> Intensity =  17.92     (DipStr = 0.6698E-01)

 Energy =   -713.3103 cm^-1: |0> -> |9^2>
   -> Intensity =  33.09     (DipStr = 0.1187    )

 Energy =   -556.2270 cm^-1: |0> -> |19^1>
   -> Intensity =  42.22     (DipStr = 0.1466    )

 Energy =   -356.6551 cm^-1: |0> -> |9^1>
   -> Intensity =  162.2     (DipStr = 0.5410    )

 Energy =      0.0000 cm^-1: |0> -> |0>
   -> Intensity =  396.5     (DipStr =  1.232    )

     ==================================================
                       Final Spectrum
     ==================================================

 Band broadening simulated by mean of Gaussian functions with
 Half-Widths at Half-Maximum of  400.00 cm^(-1)
 
 Legend:
 -------
 1st col.: Energy (in cm^-1)
 2nd col.: Intensity at T=0K
 Intensity: Emitted intensity (in microJ.mol^-1)
 -----------------------------
    12250.7415    0.195003D+00
    12270.7415    0.201697D+00
    12290.7415    0.208547D+00
    12310.7415    0.215548D+00
    12330.7415    0.222701D+00
    12350.7415    0.230011D+00
    12370.7415    0.237458D+00
    12390.7415    0.245049D+00
    12410.7415    0.252781D+00
    12430.7415    0.260655D+00
    12450.7415    0.268656D+00
    12470.7415    0.276793D+00
    12490.7415    0.285064D+00
    12510.7415    0.293457D+00
    12530.7415    0.301978D+00
    12550.7415    0.310640D+00
    12570.7415    0.319422D+00
    12590.7415    0.328330D+00
    12610.7415    0.337371D+00
    12630.7415    0.346567D+00
    12650.7415    0.355893D+00
    12670.7415    0.365364D+00
    12690.7415    0.374990D+00
    12710.7415    0.384799D+00
    12730.7415    0.394765D+00
    12750.7415    0.404924D+00
    12770.7415    0.415294D+00
    12790.7415    0.425870D+00
    12810.7415    0.436681D+00
    12830.7415    0.447763D+00
    12850.7415    0.459123D+00
    12870.7415    0.470774D+00
    12890.7415    0.482751D+00
    12910.7415    0.495124D+00
    12930.7415    0.507851D+00
    12950.7415    0.520996D+00
    12970.7415    0.534595D+00
    12990.7415    0.548705D+00
    13010.7415    0.563316D+00
    13030.7415    0.578499D+00
    13050.7415    0.594294D+00
    13070.7415    0.610729D+00
    13090.7415    0.627853D+00
    13110.7415    0.645725D+00
    13130.7415    0.664395D+00
    13150.7415    0.683868D+00
    13170.7415    0.704213D+00
    13190.7415    0.725520D+00
    13210.7415    0.747758D+00
    13230.7415    0.771013D+00
    13250.7415    0.795329D+00
    13270.7415    0.820758D+00
    13290.7415    0.847321D+00
    13310.7415    0.875078D+00
    13330.7415    0.904074D+00
    13350.7415    0.934327D+00
    13370.7415    0.965874D+00
    13390.7415    0.998774D+00
    13410.7415    0.103304D+01
    13430.7415    0.106868D+01
    13450.7415    0.110573D+01
    13470.7415    0.114425D+01
    13490.7415    0.118417D+01
    13510.7415    0.122557D+01
    13530.7415    0.126843D+01
    13550.7415    0.131273D+01
    13570.7415    0.135849D+01
    13590.7415    0.140571D+01
    13610.7415    0.145436D+01
    13630.7415    0.150440D+01
    13650.7415    0.155583D+01
    13670.7415    0.160865D+01
    13690.7415    0.166277D+01
    13710.7415    0.171816D+01
    13730.7415    0.177478D+01
    13750.7415    0.183261D+01
    13770.7415    0.189153D+01
    13790.7415    0.195153D+01
    13810.7415    0.201257D+01
    13830.7415    0.207453D+01
    13850.7415    0.213735D+01
    13870.7415    0.220101D+01
    13890.7415    0.226548D+01
    13910.7415    0.233053D+01
    13930.7415    0.239619D+01
    13950.7415    0.246247D+01
    13970.7415    0.252919D+01
    13990.7415    0.259630D+01
    14010.7415    0.266377D+01
    14030.7415    0.273164D+01
    14050.7415    0.279967D+01
    14070.7415    0.286794D+01
    14090.7415    0.293645D+01
    14110.7415    0.300509D+01
    14130.7415    0.307388D+01
    14150.7415    0.314285D+01
    14170.7415    0.321214D+01
    14190.7415    0.328151D+01
    14210.7415    0.335113D+01
    14230.7415    0.342133D+01
    14250.7415    0.349174D+01
    14270.7415    0.356263D+01
    14290.7415    0.363416D+01
    14310.7415    0.370668D+01
    14330.7415    0.377987D+01
    14350.7415    0.385416D+01
    14370.7415    0.392981D+01
    14390.7415    0.400684D+01
    14410.7415    0.408558D+01
    14430.7415    0.416632D+01
    14450.7415    0.424946D+01
    14470.7415    0.433497D+01
    14490.7415    0.442329D+01
    14510.7415    0.451485D+01
    14530.7415    0.461019D+01
    14550.7415    0.470909D+01
    14570.7415    0.481224D+01
    14590.7415    0.492019D+01
    14610.7415    0.503292D+01
    14630.7415    0.515104D+01
    14650.7415    0.527499D+01
    14670.7415    0.540510D+01
    14690.7415    0.554175D+01
    14710.7415    0.568547D+01
    14730.7415    0.583662D+01
    14750.7415    0.599541D+01
    14770.7415    0.616230D+01
    14790.7415    0.633774D+01
    14810.7415    0.652210D+01
    14830.7415    0.671546D+01
    14850.7415    0.691827D+01
    14870.7415    0.713081D+01
    14890.7415    0.735320D+01
    14910.7415    0.758579D+01
    14930.7415    0.782871D+01
    14950.7415    0.808195D+01
    14970.7415    0.834566D+01
    14990.7415    0.862005D+01
    15010.7415    0.890484D+01
    15030.7415    0.920014D+01
    15050.7415    0.950579D+01
    15070.7415    0.982180D+01
    15090.7415    0.101476D+02
    15110.7415    0.104832D+02
    15130.7415    0.108283D+02
    15150.7415    0.111823D+02
    15170.7415    0.115447D+02
    15190.7415    0.119155D+02
    15210.7415    0.122938D+02
    15230.7415    0.126789D+02
    15250.7415    0.130703D+02
    15270.7415    0.134678D+02
    15290.7415    0.138701D+02
    15310.7415    0.142764D+02
    15330.7415    0.146859D+02
    15350.7415    0.150983D+02
    15370.7415    0.155121D+02
    15390.7415    0.159268D+02
    15410.7415    0.163416D+02
    15430.7415    0.167553D+02
    15450.7415    0.171671D+02
    15470.7415    0.175765D+02
    15490.7415    0.179831D+02
    15510.7415    0.183848D+02
    15530.7415    0.187814D+02
    15550.7415    0.191732D+02
    15570.7415    0.195582D+02
    15590.7415    0.199362D+02
    15610.7415    0.203069D+02
    15630.7415    0.206713D+02
    15650.7415    0.210265D+02
    15670.7415    0.213737D+02
    15690.7415    0.217130D+02
    15710.7415    0.220440D+02
    15730.7415    0.223670D+02
    15750.7415    0.226828D+02
    15770.7415    0.229922D+02
    15790.7415    0.232947D+02
    15810.7415    0.235916D+02
    15830.7415    0.238845D+02
    15850.7415    0.241759D+02
    15870.7415    0.244636D+02
    15890.7415    0.247509D+02
    15910.7415    0.250418D+02
    15930.7415    0.253337D+02
    15950.7415    0.256307D+02
    15970.7415    0.259352D+02
    15990.7415    0.262487D+02
    16010.7415    0.265740D+02
    16030.7415    0.269136D+02
    16050.7415    0.272707D+02
    16070.7415    0.276467D+02
    16090.7415    0.280448D+02
    16110.7415    0.284681D+02
    16130.7415    0.289213D+02
    16150.7415    0.294035D+02
    16170.7415    0.299194D+02
    16190.7415    0.304726D+02
    16210.7415    0.310641D+02
    16230.7415    0.316975D+02
    16250.7415    0.323755D+02
    16270.7415    0.331004D+02
    16290.7415    0.338746D+02
    16310.7415    0.347004D+02
    16330.7415    0.355806D+02
    16350.7415    0.365156D+02
    16370.7415    0.375076D+02
    16390.7415    0.385580D+02
    16410.7415    0.396677D+02
    16430.7415    0.408378D+02
    16450.7415    0.420688D+02
    16470.7415    0.433605D+02
    16490.7415    0.447127D+02
    16510.7415    0.461251D+02
    16530.7415    0.475984D+02
    16550.7415    0.491285D+02
    16570.7415    0.507150D+02
    16590.7415    0.523559D+02
    16610.7415    0.540494D+02
    16630.7415    0.557918D+02
    16650.7415    0.575801D+02
    16670.7415    0.594122D+02
    16690.7415    0.612814D+02
    16710.7415    0.631849D+02
    16730.7415    0.651185D+02
    16750.7415    0.670756D+02
    16770.7415    0.690513D+02
    16790.7415    0.710407D+02
    16810.7415    0.730382D+02
    16830.7415    0.750359D+02
    16850.7415    0.770279D+02
    16870.7415    0.790129D+02
    16890.7415    0.809768D+02
    16910.7415    0.829145D+02
    16930.7415    0.848203D+02
    16950.7415    0.866888D+02
    16970.7415    0.885109D+02
    16990.7415    0.902817D+02
    17010.7415    0.919948D+02
    17030.7415    0.936443D+02
    17050.7415    0.952236D+02
    17070.7415    0.967293D+02
    17090.7415    0.981591D+02
    17110.7415    0.995023D+02
    17130.7415    0.100758D+03
    17150.7415    0.101930D+03
    17170.7415    0.103006D+03
    17190.7415    0.103989D+03
    17210.7415    0.104879D+03
    17230.7415    0.105690D+03
    17250.7415    0.106400D+03
    17270.7415    0.107021D+03
    17290.7415    0.107558D+03
    17310.7415    0.108014D+03
    17330.7415    0.108396D+03
    17350.7415    0.108709D+03
    17370.7415    0.108963D+03
    17390.7415    0.109165D+03
    17410.7415    0.109323D+03
    17430.7415    0.109450D+03
    17450.7415    0.109566D+03
    17470.7415    0.109666D+03
    17490.7415    0.109769D+03
    17510.7415    0.109903D+03
    17530.7415    0.110058D+03
    17550.7415    0.110261D+03
    17570.7415    0.110525D+03
    17590.7415    0.110866D+03
    17610.7415    0.111298D+03
    17630.7415    0.111838D+03
    17650.7415    0.112500D+03
    17670.7415    0.113299D+03
    17690.7415    0.114250D+03
    17710.7415    0.115368D+03
    17730.7415    0.116664D+03
    17750.7415    0.118153D+03
    17770.7415    0.119848D+03
    17790.7415    0.121757D+03
    17810.7415    0.123892D+03
    17830.7415    0.126263D+03
    17850.7415    0.128876D+03
    17870.7415    0.131738D+03
    17890.7415    0.134855D+03
    17910.7415    0.138230D+03
    17930.7415    0.141870D+03
    17950.7415    0.145768D+03
    17970.7415    0.149926D+03
    17990.7415    0.154343D+03
    18010.7415    0.159013D+03
    18030.7415    0.163932D+03
    18050.7415    0.169091D+03
    18070.7415    0.174479D+03
    18090.7415    0.180087D+03
    18110.7415    0.185900D+03
    18130.7415    0.191910D+03
    18150.7415    0.198089D+03
    18170.7415    0.204423D+03
    18190.7415    0.210893D+03
    18210.7415    0.217476D+03
    18230.7415    0.224148D+03
    18250.7415    0.230884D+03
    18270.7415    0.237658D+03
    18290.7415    0.244448D+03
    18310.7415    0.251212D+03
    18330.7415    0.257926D+03
    18350.7415    0.264558D+03
    18370.7415    0.271075D+03
    18390.7415    0.277446D+03
    18410.7415    0.283639D+03
    18430.7415    0.289619D+03
    18450.7415    0.295350D+03
    18470.7415    0.300805D+03
    18490.7415    0.305980D+03
    18510.7415    0.310791D+03
    18530.7415    0.315234D+03
    18550.7415    0.319281D+03
    18570.7415    0.322906D+03
    18590.7415    0.326087D+03
    18610.7415    0.328804D+03
    18630.7415    0.331040D+03
    18650.7415    0.332781D+03
    18670.7415    0.334014D+03
    18690.7415    0.334737D+03
    18710.7415    0.334946D+03
    18730.7415    0.334639D+03
    18750.7415    0.333829D+03
    18770.7415    0.332523D+03
    18790.7415    0.330736D+03
    18810.7415    0.328487D+03
    18830.7415    0.325799D+03
    18850.7415    0.322782D+03
    18870.7415    0.319326D+03
    18890.7415    0.315534D+03
    18910.7415    0.311445D+03
    18930.7415    0.307103D+03
    18950.7415    0.302552D+03
    18970.7415    0.297846D+03
    18990.7415    0.293035D+03
    19010.7415    0.288169D+03
    19030.7415    0.283308D+03
    19050.7415    0.278503D+03
    19070.7415    0.273810D+03
    19090.7415    0.269285D+03
    19110.7415    0.264982D+03
    19130.7415    0.260953D+03
    19150.7415    0.257250D+03
    19170.7415    0.253924D+03
    19190.7415    0.251019D+03
    19210.7415    0.248579D+03
    19230.7415    0.246646D+03
    19250.7415    0.245254D+03
    19270.7415    0.244438D+03
    19290.7415    0.244227D+03
    19310.7415    0.244645D+03
    19330.7415    0.245712D+03
    19350.7415    0.247442D+03
    19370.7415    0.249852D+03
    19390.7415    0.252945D+03
    19410.7415    0.256725D+03
    19430.7415    0.261189D+03
    19450.7415    0.266332D+03
    19470.7415    0.272144D+03
    19490.7415    0.278608D+03
    19510.7415    0.285709D+03
    19530.7415    0.293423D+03
    19550.7415    0.301722D+03
    19570.7415    0.310577D+03
    19590.7415    0.319954D+03
    19610.7415    0.329813D+03
    19630.7415    0.340113D+03
    19650.7415    0.350810D+03
    19670.7415    0.361855D+03
    19690.7415    0.373188D+03
    19710.7415    0.384766D+03
    19730.7415    0.396525D+03
    19750.7415    0.408399D+03
    19770.7415    0.420323D+03
    19790.7415    0.432229D+03
    19810.7415    0.444044D+03
    19830.7415    0.455693D+03
    19850.7415    0.467100D+03
    19870.7415    0.478185D+03
    19890.7415    0.488868D+03
    19910.7415    0.499063D+03
    19930.7415    0.508699D+03
    19950.7415    0.517687D+03
    19970.7415    0.525941D+03
    19990.7415    0.533397D+03
    20010.7415    0.539969D+03
    20030.7415    0.545587D+03
    20050.7415    0.550167D+03
    20070.7415    0.553680D+03
    20090.7415    0.556052D+03
    20110.7415    0.557235D+03
    20130.7415    0.557187D+03
    20150.7415    0.555879D+03
    20170.7415    0.553287D+03
    20190.7415    0.549401D+03
    20210.7415    0.544221D+03
    20230.7415    0.537756D+03
    20250.7415    0.530028D+03
    20270.7415    0.521060D+03
    20290.7415    0.510916D+03
    20310.7415    0.499640D+03
    20330.7415    0.487280D+03
    20350.7415    0.473942D+03
    20370.7415    0.459690D+03
    20390.7415    0.444611D+03
    20410.7415    0.428803D+03
    20430.7415    0.412366D+03
    20450.7415    0.395405D+03
    20470.7415    0.378026D+03
    20490.7415    0.360336D+03
    20510.7415    0.342445D+03
    20530.7415    0.324458D+03
    20550.7415    0.306479D+03
    20570.7415    0.288607D+03
    20590.7415    0.270935D+03
    20610.7415    0.253554D+03
    20630.7415    0.236544D+03
    20650.7415    0.219980D+03
    20670.7415    0.203926D+03
    20690.7415    0.188441D+03
    20710.7415    0.173574D+03
    20730.7415    0.159365D+03
    20750.7415    0.145843D+03
    20770.7415    0.133039D+03
    20790.7415    0.120962D+03
    20810.7415    0.109623D+03
    20830.7415    0.990197D+02
    20850.7415    0.891470D+02
    20870.7415    0.799935D+02
    20890.7415    0.715428D+02
    20910.7415    0.637722D+02
    20930.7415    0.566565D+02
    20950.7415    0.501610D+02
    20970.7415    0.442673D+02
    20990.7415    0.389351D+02
    21010.7415    0.341301D+02
    21030.7415    0.298174D+02
    21050.7415    0.259616D+02
    21070.7415    0.225282D+02
    21090.7415    0.194829D+02
    21110.7415    0.167850D+02
    21130.7415    0.144184D+02
    21150.7415    0.123434D+02
    21170.7415    0.105310D+02
    21190.7415    0.895418D+01
    21210.7415    0.758748D+01
    21230.7415    0.640546D+01
    21250.7415    0.538981D+01
 -----------------------------

 Leave Link  718 at Wed Mar 20 20:16:08 2024, MaxMem=120795955200 cpu:            4631.0 elap:              36.4
 (Enter /apps/gaussian/g16-c01-avx2/g16/l9999.exe)

 ----------------------------------------------------------------------

 Electric dipole moment (input orientation):
 (Debye = 10**-18 statcoulomb cm , SI units = C m)
                  (au)            (Debye)         (10**-30 SI)
   Tot        0.316447D-04      0.804328D-04      0.268295D-03
   x         -0.316447D-04     -0.804328D-04     -0.268295D-03
   y          0.000000D+00      0.000000D+00      0.000000D+00
   z          0.000000D+00      0.000000D+00      0.000000D+00

 Dipole polarizability, Alpha (input orientation).
 (esu units = cm**3 , SI units = C**2 m**2 J**-1)
 Alpha(0;0):
               (au)            (10**-24 esu)      (10**-40 SI)
   iso        0.252003D+03      0.373430D+02      0.415496D+02
   aniso      0.231627D+03      0.343236D+02      0.381902D+02
   xx         0.364957D+03      0.540810D+02      0.601733D+02
   yx         0.141612D+01      0.209848D+00      0.233487D+00
   yy         0.286700D+03      0.424846D+02      0.472704D+02
   zx         0.417342D-01      0.618437D-02      0.688104D-02
   zy         0.576921D-01      0.854909D-02      0.951214D-02
   zz         0.104351D+03      0.154633D+02      0.172052D+02

 ----------------------------------------------------------------------

 Dipole orientation:
     6          0.20534333         -6.30268134          2.54331591
     6          0.20914501         -6.35015558         -0.10469268
     6          0.13828186         -4.15540846         -1.53183278
     6          0.05948458         -1.78416028         -0.24628406
     6          0.05581038         -1.74442914          2.45652699
     6          0.13015600         -4.04595117          3.80936727
     6          0.14182773         -4.19682548         -4.31453221
     6         -0.01571146          0.54839563         -1.60163266
     6         -0.01167822          0.50710318         -4.38469281
     6          0.06688394         -1.86448497         -5.67011760
     6         -0.08186998          2.70144783         -5.81266095
     6         -0.09031555          2.78396906         -0.23949017
     6         -0.09372432          2.81434822          2.40894683
     6         -0.02211633          0.59607312          3.74094188
     1         -0.02410917          0.60142567          5.78651416
     1         -0.15345550          4.60722812          3.39046516
     1          0.26235336         -8.06571085          3.57762004
     1          0.12658251         -3.99131675          5.85422286
     6          0.21578302         -6.43269974         -5.67591567
     6          0.21904620         -6.46362788         -8.32433878
     6          0.14797068         -4.24555248         -9.65677415
     6          0.07057651         -1.90480611         -8.37275062
     1          0.27827615         -8.25677546         -9.30537375
     1          0.14994528         -4.25125244        -11.70235142
     6         -0.07788562          2.65336844         -8.46077901
     1         -0.13438425          4.41632845         -9.49524251
     6         -0.00322054          0.39648659         -9.72620689
     1          0.00040641          0.34112518        -11.77104432
     1          0.26970653         -8.17010823         -1.02438070
     1          0.27327960         -8.22470008         -4.70268157
     1         -0.14825431          4.57616115         -1.21210001
     1         -0.14200165          4.52161003         -4.89361048

 Electric dipole moment (dipole orientation):
 (Debye = 10**-18 statcoulomb cm , SI units = C m)
                  (au)            (Debye)         (10**-30 SI)
   Tot        0.316619D-04      0.804766D-04      0.268441D-03
   x          0.000000D+00      0.000000D+00      0.000000D+00
   y          0.000000D+00      0.000000D+00      0.000000D+00
   z          0.316619D-04      0.804766D-04      0.268441D-03

 Dipole polarizability, Alpha (dipole orientation).
 (esu units = cm**3 , SI units = C**2 m**2 J**-1)
 Alpha(0;0):
               (au)            (10**-24 esu)      (10**-40 SI)
   iso        0.252003D+03      0.373430D+02      0.415496D+02
   aniso      0.231627D+03      0.343236D+02      0.381902D+02
   xx         0.104546D+03      0.154922D+02      0.172374D+02
   yx        -0.595700D+01     -0.882736D+00     -0.982176D+00
   yy         0.286497D+03      0.424545D+02      0.472370D+02
   zx        -0.266507D+00     -0.394923D-01     -0.439411D-01
   zy         0.115922D+01      0.171779D+00      0.191129D+00
   zz         0.364965D+03      0.540822D+02      0.601746D+02

 ----------------------------------------------------------------------

 This type of calculation cannot be archived.


 In the beginning there was nothing, which exploded.
 Job cpu time:       0 days  1 hours 17 minutes 48.4 seconds.
 Elapsed time:       0 days  0 hours  0 minutes 36.6 seconds.
 File lengths (MBytes):  RWF=      6 Int=      0 D2E=      0 Chk=     50 Scr=      1
 Normal termination of Gaussian 16 at Wed Mar 20 20:16:16 2024.
