ch2o ground state opt                                                   
FOpt      RHF                                                         STO-3G              
Number of atoms                            I                4
Info1-9                                    I   N=           9
          15          15           0           0           0         100
           2           1           2
Full Title                                 C   N=           2
ch2o ground state opt   
Route                                      C   N=           3
# opt hf/sto-3g geom=connectivity   
Charge                                     I                0
Multiplicity                               I                1
Number of electrons                        I               16
Number of alpha electrons                  I                8
Number of beta electrons                   I                8
Number of basis functions                  I               12
Number of independent functions            I               12
Number of point charges in /Mol/           I                0
Number of translation vectors              I                0
Atomic numbers                             I   N=           4
           6           1           1           8
Nuclear charges                            R   N=           4
  6.00000000E+00  1.00000000E+00  1.00000000E+00  8.00000000E+00
Current cartesian coordinates              R   N=          12
  9.26720887E-33  2.73504065E-31 -1.00877667E+00  1.78660384E-31  1.75016796E+00
 -2.13434101E+00 -2.14333759E-16 -1.75016796E+00 -2.13434101E+00 -6.94575918E-33
 -3.22620269E-31  1.29016776E+00
Number of symbols in /Mol/                 I                0
Int Atom Types                             I   N=           4
           0           0           0           0
Force Field                                I                0
Atom Types                                 C   N=           4
                                                
MM charges                                 R   N=           4
  0.00000000E+00  0.00000000E+00  0.00000000E+00  0.00000000E+00
Integer atomic weights                     I   N=           4
          12           1           1          16
Real atomic weights                        R   N=           4
  1.20000000E+01  1.00782504E+00  1.00782504E+00  1.59949146E+01
Atom fragment info                         I   N=           4
           0           0           0           0
Atom residue num                           I   N=           4
           0           0           0           0
Nuclear spins                              I   N=           4
           0           1           1           0
Nuclear ZEff                               R   N=           4
 -3.60000000E+00 -1.00000000E+00 -1.00000000E+00 -5.60000000E+00
Nuclear ZNuc                               R   N=           4
  6.00000000E+00  1.00000000E+00  1.00000000E+00  8.00000000E+00
Nuclear QMom                               R   N=           4
  0.00000000E+00  0.00000000E+00  0.00000000E+00  0.00000000E+00
Nuclear GFac                               R   N=           4
  0.00000000E+00  2.79284600E+00  2.79284600E+00  0.00000000E+00
MicOpt                                     I   N=           4
          -1          -1          -1          -1
Number of residues                         I                0
Number of secondary structures             I                0
Redundant internal dimensions              I   N=           4
           7           3           3           1
Redundant internal coordinate indices      I   N=          28
           1           2           0           0           1           3
           0           0           1           4           0           0
           2           1           3           0           2           1
           4           0           3           1           4           0
           2           1           4           3
Redundant internal coordinates             R   N=           7
  2.08086112E+00  2.08086112E+00  2.29894443E+00  1.99854872E+00  2.14231829E+00
  2.14231829E+00  3.14159265E+00
ZRed-IntVec                                I   N=           7
           0           0           0           0           0           0
           0
ZRed-FPVec                                 R   N=           7
  0.00000000E+00  0.00000000E+00  0.00000000E+00  0.00000000E+00  0.00000000E+00
  0.00000000E+00  0.00000000E+00
ZRed-Constraint1                           R   N=           7
  2.08086112E+00  2.08086112E+00  2.29894443E+00  1.99854872E+00  2.14231829E+00
  2.14231829E+00  3.14159265E+00
ZRed-Constraint2                           R   N=           7
  0.00000000E+00  0.00000000E+00  0.00000000E+00  0.00000000E+00  0.00000000E+00
  0.00000000E+00  0.00000000E+00
SymInf integers                            I   N=          26
           2           4           1           1           1          -1
          -1           1          -1           1           1           1
          -1           1           0           0           0           0
           0           0           0           0           0           0
           0           0
RotTr to input orientation                 R   N=          12
 -1.00000000E+00  2.44605014E-16  1.06431895E-16 -2.44605014E-16 -1.00000000E+00
  2.76753569E-16  1.06431895E-16  2.76753569E-16  1.00000000E+00  1.33958599E-17
  9.61105163E-18 -7.08647297E-07
Number of contracted shells                I                6
Number of primitive shells                 I               18
Pure/Cartesian d shells                    I                0
Pure/Cartesian f shells                    I                0
Highest angular momentum                   I                1
Largest degree of contraction              I                3
Shell types                                I   N=           6
           0          -1           0           0           0          -1
Number of primitives per shell             I   N=           6
           3           3           3           3           3           3
Shell to atom map                          I   N=           6
           1           1           2           3           4           4
Primitive exponents                        R   N=          18
  7.16168373E+01  1.30450963E+01  3.53051216E+00  2.94124936E+00  6.83483096E-01
  2.22289916E-01  3.42525091E+00  6.23913730E-01  1.68855404E-01  3.42525091E+00
  6.23913730E-01  1.68855404E-01  1.30709321E+02  2.38088661E+01  6.44360831E+00
  5.03315132E+00  1.16959612E+00  3.80388960E-01
Contraction coefficients                   R   N=          18
  1.54328967E-01  5.35328142E-01  4.44634542E-01 -9.99672292E-02  3.99512826E-01
  7.00115469E-01  1.54328967E-01  5.35328142E-01  4.44634542E-01  1.54328967E-01
  5.35328142E-01  4.44634542E-01  1.54328967E-01  5.35328142E-01  4.44634542E-01
 -9.99672292E-02  3.99512826E-01  7.00115469E-01
P(S=P) Contraction coefficients            R   N=          18
  0.00000000E+00  0.00000000E+00  0.00000000E+00  1.55916275E-01  6.07683719E-01
  3.91957393E-01  0.00000000E+00  0.00000000E+00  0.00000000E+00  0.00000000E+00
  0.00000000E+00  0.00000000E+00  0.00000000E+00  0.00000000E+00  0.00000000E+00
  1.55916275E-01  6.07683719E-01  3.91957393E-01
Coordinates of each shell                  R   N=          18
  9.30456309E-33 -6.25913874E-33 -1.00877667E+00  9.30456309E-33 -6.25913874E-33
 -1.00877667E+00  1.67659345E-32  1.75016796E+00 -2.13434101E+00 -2.14333759E-16
 -1.75016796E+00 -2.13434101E+00 -1.39338041E-32  3.93748262E-33  1.29016776E+00
 -1.39338041E-32  3.93748262E-33  1.29016776E+00
Num ILSW                                   I              100
ILSW                                       I   N=         100
           0           0           0           0           2           0
           0           0           0           0           0          -1
           5           0           0           0           2           0
           0           0           1           0           1           0
           1           0           0           0           0           0
           0           0      100000           0          -1           0
           0           0           0           0           0           0
           0           0           0           1           0           0
           0 -2000000000           1           0           0           0
           0           0           4          52           0           0
           0           0           0           0           0           0
           0           0           0           0           0           1
           0           0           0           0           0           0
           0           0           0           0           0           0
           0           0           0           0           0           0
           0           0           0           0           0           0
           0           0           0           0
Num RLSW                                   I               52
RLSW                                       R   N=          52
  1.00000000E+00  1.00000000E+00  1.00000000E+00  1.00000000E+00  1.00000000E+00
  0.00000000E+00  0.00000000E+00  1.00000000E+00  0.00000000E+00  0.00000000E+00
  0.00000000E+00  0.00000000E+00  1.00000000E+00  0.00000000E+00  0.00000000E+00
  0.00000000E+00  0.00000000E+00  1.00000000E+00  0.00000000E+00  0.00000000E+00
  0.00000000E+00  0.00000000E+00  1.00000000E+00  0.00000000E+00  0.00000000E+00
  0.00000000E+00  0.00000000E+00  1.00000000E+00  0.00000000E+00  0.00000000E+00
  0.00000000E+00  0.00000000E+00  1.00000000E+00  0.00000000E+00  0.00000000E+00
  0.00000000E+00  0.00000000E+00  0.00000000E+00  1.00000000E+00  1.00000000E+00
  0.00000000E+00  1.00000000E+00  0.00000000E+00  0.00000000E+00  0.00000000E+00
  0.00000000E+00  0.00000000E+00  0.00000000E+00  0.00000000E+00  0.00000000E+00
  0.00000000E+00  0.00000000E+00
MxBond                                     I                3
NBond                                      I   N=           4
           3           1           1           1
IBond                                      I   N=          12
           2           3           4           1           0           0
           1           0           0           1           0           0
RBond                                      R   N=          12
  1.00000000E+00  1.00000000E+00  2.00000000E+00  1.00000000E+00  0.00000000E+00
  0.00000000E+00  1.00000000E+00  0.00000000E+00  0.00000000E+00  2.00000000E+00
  0.00000000E+00  0.00000000E+00
Virial Ratio                               R      2.008923278659845E+00
SCF Energy                                 R     -1.123543469752234E+02
Total Energy                               R     -1.123543469752234E+02
RMS Force                                  R      1.514917085405942E-04
RMS Density                                R      9.255921347146681E-09
Job Status                                 I                1
Nuclear derivative order                   I                1
External E-field                           R   N=          35
  0.00000000E+00  0.00000000E+00  0.00000000E+00  0.00000000E+00  0.00000000E+00
  0.00000000E+00  0.00000000E+00  0.00000000E+00  0.00000000E+00  0.00000000E+00
  0.00000000E+00  0.00000000E+00  0.00000000E+00  0.00000000E+00  0.00000000E+00
  0.00000000E+00  0.00000000E+00  0.00000000E+00  0.00000000E+00  0.00000000E+00
  0.00000000E+00  0.00000000E+00  0.00000000E+00  0.00000000E+00  0.00000000E+00
  0.00000000E+00  0.00000000E+00  0.00000000E+00  0.00000000E+00  0.00000000E+00
  0.00000000E+00  0.00000000E+00  0.00000000E+00  0.00000000E+00  0.00000000E+00
IOpCl                                      I                0
IROHF                                      I                0
Alpha Orbital Energies                     R   N=          12
 -2.03127722E+01 -1.11251046E+01 -1.33757101E+00 -8.07843658E-01 -6.33013070E-01
 -5.45615097E-01 -4.43302167E-01 -3.54395479E-01  2.82032393E-01  6.28945005E-01
  7.34582870E-01  9.13200187E-01
Alpha MO coefficients                      R   N=         144
  5.25080497E-04 -7.18206465E-03  0.00000000E+00  0.00000000E+00 -6.29680072E-03
  1.91242394E-04  1.91242394E-04  9.94287744E-01  2.59359653E-02  0.00000000E+00
  0.00000000E+00 -5.62292377E-03  9.92624658E-01  3.29015208E-02  0.00000000E+00
  0.00000000E+00  5.16265778E-04 -6.51200585E-03 -6.51200585E-03  1.29722795E-04
 -5.71157946E-03  0.00000000E+00  0.00000000E+00  1.63858523E-03 -1.22566226E-01
  2.77144137E-01  0.00000000E+00  0.00000000E+00  1.57759143E-01  3.17596121E-02
  3.17596121E-02 -2.19359203E-01  7.68913052E-01  0.00000000E+00  0.00000000E+00
 -1.70248939E-01 -1.85608130E-01  5.77295636E-01  0.00000000E+00  0.00000000E+00
 -2.26361137E-01  2.64566010E-01  2.64566010E-01  9.88267647E-02 -4.29050699E-01
  0.00000000E+00  0.00000000E+00 -1.64569495E-01  0.00000000E+00  0.00000000E+00
  0.00000000E+00  5.33202701E-01  0.00000000E+00  3.00173596E-01 -3.00173596E-01
  0.00000000E+00  0.00000000E+00  0.00000000E+00  4.42338635E-01  0.00000000E+00
  3.30394601E-02 -1.06752971E-01  0.00000000E+00  0.00000000E+00 -4.47431818E-01
  1.58871573E-01  1.58871573E-01 -9.38309863E-02  4.99238029E-01  0.00000000E+00
  0.00000000E+00  6.76932379E-01  0.00000000E+00  0.00000000E+00  6.09354675E-01
  0.00000000E+00  0.00000000E+00  0.00000000E+00  0.00000000E+00  0.00000000E+00
  0.00000000E+00  6.75828604E-01  0.00000000E+00  0.00000000E+00  0.00000000E+00
  0.00000000E+00  0.00000000E+00 -1.82112901E-01  0.00000000E+00 -3.59271230E-01
  3.59271230E-01  0.00000000E+00  0.00000000E+00  0.00000000E+00  8.69885017E-01
  0.00000000E+00  0.00000000E+00  0.00000000E+00  8.21129294E-01  0.00000000E+00
  0.00000000E+00  0.00000000E+00  0.00000000E+00  0.00000000E+00  0.00000000E+00
 -7.67347467E-01  0.00000000E+00  0.00000000E+00 -2.08056645E-01  1.30358041E+00
  0.00000000E+00  0.00000000E+00 -4.44965825E-01 -8.89462045E-01 -8.89462045E-01
  2.81281237E-02 -1.61647919E-01  0.00000000E+00  0.00000000E+00  2.46213097E-01
  0.00000000E+00  0.00000000E+00  0.00000000E+00  1.14852815E+00  0.00000000E+00
 -8.40036489E-01  8.40036489E-01  0.00000000E+00  0.00000000E+00  0.00000000E+00
 -3.18703337E-01  0.00000000E+00 -9.47440971E-02  6.31644813E-01  0.00000000E+00
  0.00000000E+00  1.17345934E+00  1.54938822E-01  1.54938822E-01  1.15790973E-01
 -8.64197509E-01  0.00000000E+00  0.00000000E+00  9.23986664E-01
Orthonormal basis                          R   N=         144
  1.61795944E-01  4.51905135E-01  0.00000000E+00  0.00000000E+00  2.15372063E-02
  2.87613968E-01  2.87613968E-01  7.22388597E-02  2.28795684E-01  0.00000000E+00
  0.00000000E+00 -1.95241391E-01 -1.63290676E-02 -3.23221312E-02  0.00000000E+00
  0.00000000E+00  5.43022385E-01 -2.27207587E-01 -2.27207587E-01  1.82489496E-01
  3.69638135E-01  0.00000000E+00  0.00000000E+00 -1.97166373E-01 -1.92400143E-01
 -4.78958872E-02  0.00000000E+00  0.00000000E+00 -1.79774204E-01  7.59514127E-02
  7.59514127E-02  5.84927815E-01  3.62869470E-01  0.00000000E+00  0.00000000E+00
  5.75293316E-01  9.57207999E-01 -3.57671252E-02  0.00000000E+00  0.00000000E+00
 -3.56221833E-02 -1.58882704E-01 -1.58882704E-01  6.95361846E-02  7.28270798E-03
  0.00000000E+00  0.00000000E+00  2.72675372E-01  7.69122291E-02 -9.36063133E-02
  0.00000000E+00  0.00000000E+00 -1.74782408E-01 -3.62274474E-02 -3.62274474E-02
  7.93894509E-01 -4.71044889E-01  0.00000000E+00  0.00000000E+00 -5.37198874E-01
  1.27861301E-01 -4.97644567E-01  0.00000000E+00  0.00000000E+00  1.12971067E+00
  7.07883149E-01  7.07883149E-01  1.45073010E-01 -6.64623218E-01  0.00000000E+00
  0.00000000E+00  4.39155158E-01 -2.93528405E-01  1.43375658E+00  0.00000000E+00
  0.00000000E+00  4.64374739E-01 -4.93626216E-01 -4.93626216E-01  1.80789799E-01
 -9.02168864E-01  0.00000000E+00  0.00000000E+00  6.81882609E-01  0.00000000E+00
  0.00000000E+00  6.43154053E-01  0.00000000E+00  0.00000000E+00  0.00000000E+00
  0.00000000E+00  0.00000000E+00  0.00000000E+00  6.43154053E-01  0.00000000E+00
  0.00000000E+00  0.00000000E+00  0.00000000E+00  7.94933520E-01  0.00000000E+00
  0.00000000E+00  0.00000000E+00  0.00000000E+00  0.00000000E+00  0.00000000E+00
 -7.94933520E-01  0.00000000E+00  0.00000000E+00  0.00000000E+00  0.00000000E+00
  0.00000000E+00  5.85632295E-01  0.00000000E+00  3.40132322E-01 -3.40132322E-01
  0.00000000E+00  0.00000000E+00  0.00000000E+00  2.67567544E-01  0.00000000E+00
  0.00000000E+00  0.00000000E+00  0.00000000E+00 -1.50716849E-01  0.00000000E+00
 -2.45633854E-01  2.45633854E-01  0.00000000E+00  0.00000000E+00  0.00000000E+00
  9.54378386E-01  0.00000000E+00  0.00000000E+00  0.00000000E+00  0.00000000E+00
 -1.12734484E+00  0.00000000E+00  8.65341158E-01 -8.65341158E-01  0.00000000E+00
  0.00000000E+00  0.00000000E+00  2.67403693E-01  0.00000000E+00
Total SCF Density                          R   N=          78
  2.07173690E+00 -2.23982491E-01  8.45218826E-01  1.03596798E-34  0.00000000E+00
  7.42626239E-01  1.03596798E-34  0.00000000E+00 -9.62964972E-33  6.34940459E-01
  1.68095414E-02 -7.82567787E-02  3.40643032E-33  3.40643032E-33  5.52724920E-01
 -1.08426209E-01  2.88718305E-01 -4.62223187E-33  4.50962596E-01 -2.51931714E-01
  6.30932941E-01 -1.08426209E-01  2.88718305E-01  0.00000000E+00 -4.50962596E-01
 -2.51931714E-01 -2.45787076E-01  6.30932941E-01  1.21874015E-02 -1.72378230E-03
 -2.61978915E-34 -2.61978915E-34 -4.25085093E-02  8.92333682E-03  8.92333682E-03
  2.11059516E+00 -7.53750888E-03 -1.76517378E-01 -6.30814265E-35 -6.30814265E-35
 -1.02355466E-02 -1.94699326E-02 -1.94699326E-02 -4.64253544E-01  2.05051138E+00
  9.29391966E-34  0.00000000E+00  8.23638639E-01 -3.08148791E-33  0.00000000E+00
  1.54074396E-33  0.00000000E+00 -5.91966443E-34  0.00000000E+00  9.13488604E-01
  9.29391966E-34  0.00000000E+00 -3.08148791E-33  1.54877743E-01  6.21638677E-49
 -3.59492563E-01  3.59492563E-01 -5.91966443E-34  0.00000000E+00  0.00000000E+00
  1.90472682E+00  1.50802468E-01 -4.28717987E-01 -3.60473715E-33 -3.60473715E-33
 -5.84902043E-01  1.17174063E-01  1.17174063E-01 -9.60520470E-02  5.54994434E-01
  6.33972464E-33  6.33972464E-33  1.02867914E+00
Grdnt Energy                               R     -1.123543469752234E+02
Grdnt NVar                                 I                7
Grdnt IGetFC                               I                0
Internal Forces                            R   N=           7
  2.12807399E-04  2.12807399E-04  3.78751283E-04  4.15664653E-05 -2.07832327E-05
 -2.07832327E-05  4.10713121E-16
Internal Force Constants                   R   N=          28
  3.35558909E-01  0.00000000E+00  3.35558909E-01  0.00000000E+00  0.00000000E+00
  9.69287643E-01  0.00000000E+00  0.00000000E+00  0.00000000E+00  1.60000000E-01
  0.00000000E+00  0.00000000E+00  0.00000000E+00  0.00000000E+00  1.60000000E-01
  0.00000000E+00  0.00000000E+00  0.00000000E+00  0.00000000E+00  0.00000000E+00
  1.60000000E-01  0.00000000E+00  0.00000000E+00  0.00000000E+00  0.00000000E+00
  0.00000000E+00  0.00000000E+00  4.11848542E-02
Mulliken Charges                           R   N=           4
  7.49704773E-02  5.64960128E-02  5.64960128E-02 -1.87962503E-01
Optimization MaxStp                        I              100
Optimization MaxJob                        I                1
Optimization Job offset                    I                0
Optimization Num results per geometry      I                2
Optimization Num geometry variables        I               12
Optimization Reference Energy              R     -1.120000000000000E+02
Opt point       1 Results for each geome   R   N=           2
 -3.54346975E-01  0.00000000E+00
Opt point       1 Geometries               R   N=          12
  9.30456309E-33 -6.25913874E-33 -1.00877667E+00  1.67659345E-32  1.75016796E+00
 -2.13434101E+00 -2.14333759E-16 -1.75016796E+00 -2.13434101E+00 -1.39338041E-32
  3.93748262E-33  1.29016776E+00
Opt point       1 Gradient at each geome   R   N=          12
  6.97213572E-16  2.22044605E-16  1.98933980E-04 -2.98791451E-16 -1.95195362E-04
  8.99086515E-05 -4.67000893E-16  1.95195362E-04  8.99086515E-05  6.85787717E-17
  2.79724161E-17 -3.78751283E-04
Optimization Number of geometries          I   N=           1
           1
ONIOM Charges                              I   N=          16
           0           0           0           0           0           0
           0           0           0           0           0           0
           0           0           0           0
ONIOM Multiplicities                       I   N=          16
           1           0           0           0           0           0
           0           0           0           0           0           0
           0           0           0           0
Atom Layers                                I   N=           4
           1           1           1           1
Atom Modifiers                             I   N=           4
           0           0           0           0
Int Atom Modified Types                    I   N=           4
           0           0           0           0
Force Field                                I                0
Atom Modified Types                        C   N=           4
                                                
Link Atoms                                 I   N=           4
           0           0           0           0
Atom Modified MM Charges                   R   N=           4
  0.00000000E+00  0.00000000E+00  0.00000000E+00  0.00000000E+00
Link Distances                             R   N=          16
  0.00000000E+00  0.00000000E+00  0.00000000E+00  0.00000000E+00  0.00000000E+00
  0.00000000E+00  0.00000000E+00  0.00000000E+00  0.00000000E+00  0.00000000E+00
  0.00000000E+00  0.00000000E+00  0.00000000E+00  0.00000000E+00  0.00000000E+00
  0.00000000E+00
Cartesian Gradient                         R   N=          12
  6.97222564E-16  2.22075298E-16  1.98933980E-04 -2.98754217E-16 -1.95195362E-04
  8.99086515E-05 -4.67029999E-16  1.95195362E-04  8.99086515E-05  6.85616523E-17
  2.79139789E-17 -3.78751283E-04
Nonadiabatic coupling                      R   N=          12
  0.00000000E+00  0.00000000E+00  0.00000000E+00  0.00000000E+00  0.00000000E+00
  0.00000000E+00  0.00000000E+00  0.00000000E+00  0.00000000E+00  0.00000000E+00
  0.00000000E+00  0.00000000E+00
Dipole Moment                              R   N=           3
 -3.41664639E-17 -9.32728026E-17 -6.04533502E-01
Quadrupole Moment                          R   N=           6
  2.49476609E-01  1.58935977E-01 -4.08412586E-01  4.66680051E-17  1.98190442E-18
 -5.12983413E-19
QEq coupling tensors                       R   N=          24
  1.08871636E-01  6.07349977E-17  5.22476772E-02  1.91508273E-17 -6.05780050E-18
 -1.61119313E-01  1.52257771E-01  6.71314613E-17 -1.69968904E-01 -4.08552370E-17
  2.07849108E-01  1.77111329E-02  1.52257771E-01 -2.02229491E-17 -1.69968904E-01
 -1.20415623E-17 -2.07849108E-01  1.77111329E-02 -1.52147528E+00 -6.84365512E-16
  2.46437856E+00  2.50598841E-17 -5.22056627E-16 -9.42903277E-01
ClPar MaxAn                                I              200
ClPar NIntPar                              I                4
ClPar NRealPar                             I               16
ClPar NBits                                I               30
ClPar LenBitVec                            I                1
ClPar Read BitMap                          I   N=         200
           0           0           0           0           0           0
           0           0           0           0           0           0
           0           0           0           0           0           0
           0           0           0           0           0           0
           0           0           0           0           0           0
           0           0           0           0           0           0
           0           0           0           0           0           0
           0           0           0           0           0           0
           0           0           0           0           0           0
           0           0           0           0           0           0
           0           0           0           0           0           0
           0           0           0           0           0           0
           0           0           0           0           0           0
           0           0           0           0           0           0
           0           0           0           0           0           0
           0           0           0           0           0           0
           0           0           0           0           0           0
           0           0           0           0           0           0
           0           0           0           0           0           0
           0           0           0           0           0           0
           0           0           0           0           0           0
           0           0           0           0           0           0
           0           0           0           0           0           0
           0           0           0           0           0           0
           0           0           0           0           0           0
           0           0           0           0           0           0
           0           0           0           0           0           0
           0           0           0           0           0           0
           0           0           0           0           0           0
           0           0           0           0           0           0
           0           0           0           0           0           0
           0           0           0           0           0           0
           0           0           0           0           0           0
           0           0
ClPar Default BitMap                       I   N=         200
        2016        2016        2016        2016        2016        2016
        2016        2016        2016        2016        2016        2016
        2016        2016        2016        2016        2016        2016
        2016        2016        2016        2016        2016        2016
        2016        2016        2016        2016        2016        2016
        2016        2016        2016        2016        2016        2016
        2016        2016        2016        2016        2016        2016
        2016        2016        2016        2016        2016        2016
        2016        2016        2016        2016        2016        2016
        2016        2016        2016        2016        2016        2016
        2016        2016        2016        2016        2016        2016
        2016        2016        2016        2016        2016        2016
        2016        2016        2016        2016        2016        2016
        2016        2016        2016        2016        2016        2016
        2016        2016         480         480         480         480
         480         480         480         480         480         480
         480         480         480         480         480         480
         480         480         480         480         480         480
         480         480         480         480         480         480
         480         480         480         480         480         480
         480         480         480         480         480         480
         480         480         480         480         480         480
         480         480         480         480         480         480
         480         480         480         480         480         480
         480         480         480         480         480         480
         480         480         480         480         480         480
         480         480         480         480         480         480
         480         480         480         480         480         480
         480         480         480         480         480         480
         480         480         480         480         480         480
         480         480         480         480         480         480
         480         480         480         480         480         480
         480         480         480         480         480         480
         480         480
ClPar Int Params                           I   N=         800
           0           0           0           0           0           0
           0           0           0           0           0           0
           0           0           0           0           0           0
           0           0           0           0           0           0
           0           0           0           0           0           0
           0           0           0           0           0           0
           0           0           0           0           0           0
           0           0           0           0           0           0
           0           0           0           0           0           0
           0           0           0           0           0           0
           0           0           0           0           0           0
           0           0           0           0           0           0
           0           0           0           0           0           0
           0           0           0           0           0           0
           0           0           0           0           0           0
           0           0           0           0           0           0
           0           0           0           0           0           0
           0           0           0           0           0           0
           0           0           0           0           0           0
           0           0           0           0           0           0
           0           0           0           0           0           0