 Entering Gaussian System, Link 0=g16
 Input=formaldehyde_es_CAM-B3LYP_freq.gjf
 Output=formaldehyde_es_CAM-B3LYP_freq.log
 Initial command:
 /apps/gaussian/g16-c01-avx2/g16/l1.exe "/var/tmp/pbs.8969566.pbs/Gau-1444344.inp" -scrdir="/var/tmp/pbs.8969566.pbs/"
 Entering Link 1 = /apps/gaussian/g16-c01-avx2/g16/l1.exe PID=   1444348.
  
 Copyright (c) 1988-2019, Gaussian, Inc.  All Rights Reserved.
  
 This is part of the Gaussian(R) 16 program.  It is based on
 the Gaussian(R) 09 system (copyright 2009, Gaussian, Inc.),
 the Gaussian(R) 03 system (copyright 2003, Gaussian, Inc.),
 the Gaussian(R) 98 system (copyright 1998, Gaussian, Inc.),
 the Gaussian(R) 94 system (copyright 1995, Gaussian, Inc.),
 the Gaussian 92(TM) system (copyright 1992, Gaussian, Inc.),
 the Gaussian 90(TM) system (copyright 1990, Gaussian, Inc.),
 the Gaussian 88(TM) system (copyright 1988, Gaussian, Inc.),
 the Gaussian 86(TM) system (copyright 1986, Carnegie Mellon
 University), and the Gaussian 82(TM) system (copyright 1983,
 Carnegie Mellon University). Gaussian is a federally registered
 trademark of Gaussian, Inc.
  
 This software contains proprietary and confidential information,
 including trade secrets, belonging to Gaussian, Inc.
  
 This software is provided under written license and may be
 used, copied, transmitted, or stored only in accord with that
 written license.
  
 The following legend is applicable only to US Government
 contracts under FAR:
  
                    RESTRICTED RIGHTS LEGEND
  
 Use, reproduction and disclosure by the US Government is
 subject to restrictions as set forth in subparagraphs (a)
 and (c) of the Commercial Computer Software - Restricted
 Rights clause in FAR 52.227-19.
  
 Gaussian, Inc.
 340 Quinnipiac St., Bldg. 40, Wallingford CT 06492
  
  
 ---------------------------------------------------------------
 Warning -- This program may not be used in any manner that
 competes with the business of Gaussian, Inc. or will provide
 assistance to any competitor of Gaussian, Inc.  The licensee
 of this program is prohibited from giving any competitor of
 Gaussian, Inc. access to this program.  By using this program,
 the user acknowledges that Gaussian, Inc. is engaged in the
 business of creating and licensing software in the field of
 computational chemistry and represents and warrants to the
 licensee that it is not a competitor of Gaussian, Inc. and that
 it will not use this program in any manner prohibited above.
 ---------------------------------------------------------------
  

 Cite this work as:
 Gaussian 16, Revision C.01,
 M. J. Frisch, G. W. Trucks, H. B. Schlegel, G. E. Scuseria, 
 M. A. Robb, J. R. Cheeseman, G. Scalmani, V. Barone, 
 G. A. Petersson, H. Nakatsuji, X. Li, M. Caricato, A. V. Marenich, 
 J. Bloino, B. G. Janesko, R. Gomperts, B. Mennucci, H. P. Hratchian, 
 J. V. Ortiz, A. F. Izmaylov, J. L. Sonnenberg, D. Williams-Young, 
 F. Ding, F. Lipparini, F. Egidi, J. Goings, B. Peng, A. Petrone, 
 T. Henderson, D. Ranasinghe, V. G. Zakrzewski, J. Gao, N. Rega, 
 G. Zheng, W. Liang, M. Hada, M. Ehara, K. Toyota, R. Fukuda, 
 J. Hasegawa, M. Ishida, T. Nakajima, Y. Honda, O. Kitao, H. Nakai, 
 T. Vreven, K. Throssell, J. A. Montgomery, Jr., J. E. Peralta, 
 F. Ogliaro, M. J. Bearpark, J. J. Heyd, E. N. Brothers, K. N. Kudin, 
 V. N. Staroverov, T. A. Keith, R. Kobayashi, J. Normand, 
 K. Raghavachari, A. P. Rendell, J. C. Burant, S. S. Iyengar, 
 J. Tomasi, M. Cossi, J. M. Millam, M. Klene, C. Adamo, R. Cammi, 
 J. W. Ochterski, R. L. Martin, K. Morokuma, O. Farkas, 
 J. B. Foresman, and D. J. Fox, Gaussian, Inc., Wallingford CT, 2019.
 
 ******************************************
 Gaussian 16:  ES64L-G16RevC.01  3-Jul-2019
                22-Feb-2024 
 ******************************************
 %oldchk=/rds/general/user/rk820/home/dibs-g16/fc_ht/formaldehyde/formaldehyde_CA
 M-B3LYP.chk
 %chk=/rds/general/user/rk820/home/dibs-g16/fc_ht/formaldehyde/formaldehyde_es_CA
 M-B3LYP_freq.chk
 Copying data from "/rds/general/user/rk820/home/dibs-g16/fc_ht/formaldehyde/formaldehyde_CAM-B3LYP.chk" to current chk file "/rds/general/user/rk820/home/dibs-g16/fc_ht/formaldehyde/formaldehyde_es_CAM-B3LYP_freq.chk"
 IOpt=  2 FromEx=T IUOpen= 4 IOptOp= 5 NList=   0 IFRang= 0 IUIn= 4 IUOut= 2.
 -------------------------------------------------------------------
 # CAM-B3LYP/TZVP TD=(nstates=2) geom=check Density=Current opt freq
 -------------------------------------------------------------------
 1/18=20,19=15,26=3,29=2,38=1/1,3;
 2/9=110,12=2,40=1/2;
 3/5=19,7=101,11=9,14=-4,25=1,30=1,71=1,74=-40/1,2,3,8;
 4//1;
 5/5=2,38=5/2;
 8/6=1,10=1,108=2/1;
 9/15=2,41=2,42=1,70=2/14;
 10/5=4/2;
 6/7=2,8=2,9=2,10=2,22=-1/1;
 7/12=6,13=5/1,2,3,16;
 1/18=20,19=15,26=3/3(2);
 2/9=110/2;
 99//99;
 2/9=110/2;
 3/5=19,7=101,11=9,14=-2,25=1,30=1,71=1,74=-40/1,2,3,8;
 4/5=5,16=3,69=1/1;
 5/5=2,38=5/2;
 8/6=1,10=1,108=2/1;
 9/15=2,41=2,42=1,49=4,70=2/14;
 10/5=4/2;
 7/12=6,13=5/1,2,3,16;
 1/18=20,19=15,26=3/3(-8);
 2/9=110/2;
 6/7=2,8=2,9=2,10=2,22=-1/1;
 99/9=10/99;
 ----------------------------------------------------------------------
 CAM-B3LYP, TD-DFT for formaldehyde, calculating the first two excited 
 states and optimizing its geometry, followed by a vibrational analysis
 .
 ----------------------------------------------------------------------
 Structure from the checkpoint file:  "/rds/general/user/rk820/home/dibs-g16/fc_ht/formaldehyde/formaldehyde_es_CAM-B3LYP_freq.chk"
 Charge =  0 Multiplicity = 1
 Redundant internal coordinates found in file.  (old form).
 C,0,-0.5023863901,-0.3697623644,0.
 H,0,0.0186591517,-1.3444073923,0.
 H,0,-1.6069633122,-0.4062481164,0.
 O,0,0.0957883026,0.6667420361,0.
 Recover connectivity data from disk.

 GradGradGradGradGradGradGradGradGradGradGradGradGradGradGradGradGradGrad
 Berny optimization.
 Initialization pass.
                           ----------------------------
                           !    Initial Parameters    !
                           ! (Angstroms and Degrees)  !
 --------------------------                            --------------------------
 ! Name  Definition              Value          Derivative Info.                !
 --------------------------------------------------------------------------------
 ! R1    R(1,2)                  1.1052         estimate D2E/DX2                !
 ! R2    R(1,3)                  1.1052         estimate D2E/DX2                !
 ! R3    R(1,4)                  1.1967         estimate D2E/DX2                !
 ! A1    A(2,1,3)              116.2371         estimate D2E/DX2                !
 ! A2    A(2,1,4)              121.8814         estimate D2E/DX2                !
 ! A3    A(3,1,4)              121.8814         estimate D2E/DX2                !
 ! D1    D(2,1,4,3)            180.0            estimate D2E/DX2                !
 --------------------------------------------------------------------------------
 Trust Radius=3.00D-01 FncErr=1.00D-07 GrdErr=1.00D-06 EigMax=2.50D+02 EigMin=1.00D-04
 Number of steps in this run=     20 maximum allowed number of steps=    100.
 GradGradGradGradGradGradGradGradGradGradGradGradGradGradGradGradGradGrad

                          Input orientation:                          
 ---------------------------------------------------------------------
 Center     Atomic      Atomic             Coordinates (Angstroms)
 Number     Number       Type             X           Y           Z
 ---------------------------------------------------------------------
      1          6           0       -0.502386   -0.369762    0.000000
      2          1           0        0.018659   -1.344407    0.000000
      3          1           0       -1.606963   -0.406248   -0.000000
      4          8           0        0.095788    0.666742   -0.000000
 ---------------------------------------------------------------------
                    Distance matrix (angstroms):
                    1          2          3          4
     1  C    0.000000
     2  H    1.105179   0.000000
     3  H    1.105179   1.876910   0.000000
     4  O    1.196727   2.012628   2.012628   0.000000
 Stoichiometry    CH2O
 Framework group  C2V[C2(CO),SGV(H2)]
 Deg. of freedom     3
 Full point group                 C2V     NOp   4
 Largest Abelian subgroup         C2V     NOp   4
 Largest concise Abelian subgroup C2      NOp   2
                         Standard orientation:                         
 ---------------------------------------------------------------------
 Center     Atomic      Atomic             Coordinates (Angstroms)
 Number     Number       Type             X           Y           Z
 ---------------------------------------------------------------------
      1          6           0       -0.000000   -0.000000   -0.525399
      2          1           0       -0.000000   -0.938455   -1.109114
      3          1           0        0.000000    0.938455   -1.109114
      4          8           0        0.000000    0.000000    0.671328
 ---------------------------------------------------------------------
 Rotational constants (GHZ):         284.6919235          39.3605172          34.5796542
 Standard basis: TZVP (5D, 7F)
 There are    27 symmetry adapted cartesian basis functions of A1  symmetry.
 There are     3 symmetry adapted cartesian basis functions of A2  symmetry.
 There are     9 symmetry adapted cartesian basis functions of B1  symmetry.
 There are    13 symmetry adapted cartesian basis functions of B2  symmetry.
 There are    25 symmetry adapted basis functions of A1  symmetry.
 There are     3 symmetry adapted basis functions of A2  symmetry.
 There are     9 symmetry adapted basis functions of B1  symmetry.
 There are    13 symmetry adapted basis functions of B2  symmetry.
    50 basis functions,    86 primitive gaussians,    52 cartesian basis functions
     8 alpha electrons        8 beta electrons
       nuclear repulsion energy        31.4595730875 Hartrees.
 NAtoms=    4 NActive=    4 NUniq=    3 SFac= 1.78D+00 NAtFMM=   60 NAOKFM=F Big=F
 Integral buffers will be    131072 words long.
 Raffenetti 1 integral format.
 Two-electron integral symmetry is turned on.
 One-electron integrals computed using PRISM.
 NBasis=    50 RedAO= T EigKep=  5.44D-03  NBF=    25     3     9    13
 NBsUse=    50 1.00D-06 EigRej= -1.00D+00 NBFU=    25     3     9    13
 ExpMin= 9.52D-02 ExpMax= 2.70D+04 ExpMxC= 9.22D+02 IAcc=3 IRadAn=         5 AccDes= 0.00D+00
 Harris functional with IExCor=20419 and IRadAn=       5 diagonalized for initial guess.
 HarFok:  IExCor=20419 AccDes= 0.00D+00 IRadAn=         5 IDoV= 1 UseB2=F ITyADJ=14
 ICtDFT=  3500011 ScaDFX=  1.000000  1.000000  1.000000  1.000000
 FoFCou: FMM=F IPFlag=           0 FMFlag=      100000 FMFlg1=           0
         NFxFlg=           0 DoJE=T BraDBF=F KetDBF=T FulRan=T
         wScrn=  0.000000 ICntrl=       500 IOpCl=  0 I1Cent=   200000004 NGrid=           0
         NMat0=    1 NMatS0=      1 NMatT0=    0 NMatD0=    1 NMtDS0=    0 NMtDT0=    0
 Petite list used in FoFCou.
 Initial guess orbital symmetries:
       Occupied  (A1) (A1) (A1) (A1) (B2) (A1) (B1) (B2)
       Virtual   (B1) (A1) (A1) (B2) (B1) (A1) (B2) (A1) (A1) (B2)
                 (B1) (A1) (B2) (A1) (A2) (A1) (B2) (A1) (B1) (B1)
                 (B2) (A1) (B2) (B1) (A1) (A2) (A1) (A1) (B2) (B1)
                 (A1) (B2) (A2) (A1) (A1) (B2) (A1) (B1) (B2) (A1)
                 (A1) (A1)
 The electronic state of the initial guess is 1-A1.
 Keep R1 ints in memory in symmetry-blocked form, NReq=2575049.
 Requested convergence on RMS density matrix=1.00D-08 within 128 cycles.
 Requested convergence on MAX density matrix=1.00D-06.
 Requested convergence on             energy=1.00D-06.
 No special actions if energy rises.
 Integral accuracy reduced to 1.0D-05 until final iterations.
 Initial convergence to 1.0D-05 achieved.  Increase integral accuracy.
 SCF Done:  E(RCAM-B3LYP) =  -114.498536673     A.U. after   12 cycles
            NFock= 12  Conv=0.46D-08     -V/T= 2.0037
 DoSCS=F DFT=T ScalE2(SS,OS)=  1.000000  1.000000
 ExpMin= 9.52D-02 ExpMax= 2.70D+04 ExpMxC= 9.22D+02 IAcc=3 IRadAn=         5 AccDes= 0.00D+00
 HarFok:  IExCor=  205 AccDes= 0.00D+00 IRadAn=         5 IDoV=-2 UseB2=F ITyADJ=14
 ICtDFT= 12500011 ScaDFX=  1.000000  1.000000  1.000000  1.000000
 Range of M.O.s used for correlation:     3    50
 NBasis=    50 NAE=     8 NBE=     8 NFC=     2 NFV=     0
 NROrb=     48 NOA=     6 NOB=     6 NVA=    42 NVB=    42
 Keep R1, R2, and R3 ints in memory in symmetry-blocked form, NReq=2753452.
 Orbital symmetries:
       Occupied  (A1) (A1) (A1) (A1) (B2) (A1) (B1) (B2)
       Virtual   (B1) (A1) (A1) (B2) (A1) (B1) (B2) (A1) (A1) (B2)
                 (B1) (A1) (B2) (A1) (A2) (A1) (B2) (A1) (B1) (B1)
                 (B2) (A1) (B2) (B1) (A1) (A2) (A1) (A1) (B2) (B1)
                 (A1) (B2) (A2) (A1) (A1) (B2) (A1) (B1) (B2) (A1)
                 (A1) (A1)
     8 initial guesses have been made.
 Convergence on wavefunction:    0.000001000000000
 Iteration     1 Dimension     8 NMult     0 NNew      8
 CISAX will form     8 AO SS matrices at one time.
 Iteration     2 Dimension    12 NMult     8 NNew      4
 Iteration     3 Dimension    16 NMult    12 NNew      4
 Iteration     4 Dimension    20 NMult    16 NNew      4
 Iteration     5 Dimension    24 NMult    20 NNew      4
 Iteration     6 Dimension    28 NMult    24 NNew      4
 Iteration     7 Dimension    30 NMult    28 NNew      2
 Iteration     8 Dimension    32 NMult    30 NNew      2
 ***********************************************************************
 Excited states from <AA,BB:AA,BB> singles matrix:
 ***********************************************************************
 
 Ground to excited state transition densities written to RWF  633
 Ground to excited state transition electric dipole moments (Au):
       state          X           Y           Z        Dip. S.      Osc.
         1         0.0000      0.0000     -0.0000      0.0000      0.0000
         2        -0.0000     -0.6755      0.0000      0.4562      0.0928
 Ground to excited state transition velocity dipole moments (Au):
       state          X           Y           Z        Dip. S.      Osc.
         1        -0.0000     -0.0000      0.0000      0.0000      0.0000
         2         0.0000      0.1938     -0.0000      0.0376      0.0821
 Ground to excited state transition magnetic dipole moments (Au):
       state          X           Y           Z
         1        -0.0000      0.0000      1.2332
         2         0.9638     -0.0000      0.0000
 Ground to excited state transition velocity quadrupole moments (Au):
       state          XX          YY          ZZ          XY          XZ          YZ
         1        -0.0000      0.0000      0.0000     -0.0990      0.0000      0.0000
         2         0.0000      0.0000      0.0000     -0.0000     -0.0000     -0.7464
 <0|del|b> * <b|rxdel|0> + <0|del|b> * <b|delr+rdel|0>
 Rotatory Strengths (R) in cgs (10**-40 erg-esu-cm/Gauss)
       state          XX          YY          ZZ    R(velocity)    E-M Angle
         1         0.0000      0.0000      0.0000      0.0000       90.00
         2        -0.0000      0.0000      0.0000      0.0000       90.00
 1/2[<0|r|b>*<b|rxdel|0> + (<0|rxdel|b>*<b|r|0>)*]
 Rotatory Strengths (R) in cgs (10**-40 erg-esu-cm/Gauss)
       state          XX          YY          ZZ     R(length)
         1         0.0000     -0.0000      0.0000      0.0000
         2         0.0000     -0.0000     -0.0000      0.0000
  1/2[<0|del|b>*<b|r|0> + (<0|r|b>*<b|del|0>)*] (Au)
       state          X           Y           Z        Dip. S.   Osc.(frdel)
         1        -0.0000     -0.0000     -0.0000      0.0000      0.0000
         2        -0.0000     -0.1309     -0.0000      0.1309      0.0873

 Excitation energies and oscillator strengths:
 
 Excited State   1:      Singlet-A2     3.9971 eV  310.19 nm  f=0.0000  <S**2>=0.000
       8 ->  9         0.70441
 This state for optimization and/or second-order correction.
 Total Energy, E(TD-HF/TD-DFT) =  -114.351646612    
 Copying the excited state density for this state as the 1-particle RhoCI density.
 
 Excited State   2:      Singlet-B2     8.3036 eV  149.31 nm  f=0.0928  <S**2>=0.000
       8 -> 10         0.68922
       8 -> 11         0.14950
 SavETr:  write IOETrn=   770 NScale= 10 NData=  16 NLR=1 NState=    2 LETran=      46.
          IDoAtm=1111
          Differentiating once with respect to electric field.
                with respect to dipole field.
          Differentiating once with respect to nuclear coordinates.
 Keep R1 ints in memory in symmetry-blocked form, NReq=2577698.
          There are     1 degrees of freedom in the 1st order CPHF.  IDoFFX=0 NUNeed=     1.
 LinEq1:  Iter=  0 NonCon=     1 RMS=4.43D-02 Max=6.40D-01 NDo=     1
 AX will form     1 AO Fock derivatives at one time.
 LinEq1:  Iter=  1 NonCon=     1 RMS=1.03D-02 Max=7.51D-02 NDo=     1
 LinEq1:  Iter=  2 NonCon=     1 RMS=4.30D-03 Max=3.85D-02 NDo=     1
 LinEq1:  Iter=  3 NonCon=     1 RMS=1.14D-03 Max=7.27D-03 NDo=     1
 LinEq1:  Iter=  4 NonCon=     1 RMS=2.09D-04 Max=1.69D-03 NDo=     1
 LinEq1:  Iter=  5 NonCon=     1 RMS=2.85D-05 Max=2.04D-04 NDo=     1
 LinEq1:  Iter=  6 NonCon=     1 RMS=2.09D-06 Max=1.50D-05 NDo=     1
 LinEq1:  Iter=  7 NonCon=     1 RMS=2.15D-07 Max=1.60D-06 NDo=     1
 LinEq1:  Iter=  8 NonCon=     1 RMS=3.61D-08 Max=3.55D-07 NDo=     1
 LinEq1:  Iter=  9 NonCon=     1 RMS=3.23D-09 Max=2.08D-08 NDo=     1
 LinEq1:  Iter= 10 NonCon=     1 RMS=2.63D-10 Max=1.96D-09 NDo=     1
 LinEq1:  Iter= 11 NonCon=     0 RMS=2.16D-11 Max=1.08D-10 NDo=     1
 Linear equations converged to 1.000D-10 1.000D-09 after    11 iterations.
 End of Minotr F.D. properties file   721 does not exist.
 End of Minotr F.D. properties file   722 does not exist.
 End of Minotr F.D. properties file   788 does not exist.

 **********************************************************************

            Population analysis using the CI Density.

 **********************************************************************

 Orbital symmetries:
       Occupied  (A1) (A1) (A1) (A1) (B2) (A1) (B1) (B2)
       Virtual   (B1) (A1) (A1) (B2) (A1) (B1) (B2) (A1) (A1) (B2)
                 (B1) (A1) (B2) (A1) (A2) (A1) (B2) (A1) (B1) (B1)
                 (B2) (A1) (B2) (B1) (A1) (A2) (A1) (A1) (B2) (B1)
                 (A1) (B2) (A2) (A1) (A1) (B2) (A1) (B1) (B2) (A1)
                 (A1) (A1)
 The electronic state is 1-A1.
 Alpha  occ. eigenvalues --  -19.22139 -10.34984  -1.15567  -0.71720  -0.57826
 Alpha  occ. eigenvalues --   -0.53094  -0.47869  -0.34230
 Alpha virt. eigenvalues --   -0.00188   0.09506   0.14924   0.15478   0.24465
 Alpha virt. eigenvalues --    0.25021   0.30121   0.45846   0.48341   0.49786
 Alpha virt. eigenvalues --    0.55848   0.58738   0.66688   0.78045   1.22538
 Alpha virt. eigenvalues --    1.30562   1.34136   1.34209   1.37131   1.54958
 Alpha virt. eigenvalues --    1.70242   1.76940   1.78794   2.00950   2.14435
 Alpha virt. eigenvalues --    2.14733   2.29077   2.48406   2.51211   2.66166
 Alpha virt. eigenvalues --    2.69731   2.72478   2.76538   2.86857   3.02228
 Alpha virt. eigenvalues --    3.04981   3.24448   3.26429   3.59573   4.23052
 Alpha virt. eigenvalues --   21.95697  43.33542
          Condensed to atoms (all electrons):
               1          2          3          4
     1  C    5.324598   0.371501   0.371501   0.180521
     2  H    0.371501   0.532434  -0.044528  -0.032368
     3  H    0.371501  -0.044528   0.532434  -0.032368
     4  O    0.180521  -0.032368  -0.032368   7.982018
 Mulliken charges:
               1
     1  C   -0.248121
     2  H    0.172962
     3  H    0.172962
     4  O   -0.097802
 Sum of Mulliken charges =  -0.00000
 Mulliken charges with hydrogens summed into heavy atoms:
               1
     1  C    0.097802
     4  O   -0.097802
 Electronic spatial extent (au):  <R**2>=             60.7672
 Charge=             -0.0000 electrons
 Dipole moment (field-independent basis, Debye):
    X=             -0.0000    Y=             -0.0000    Z=             -1.6304  Tot=              1.6304
 Quadrupole moment (field-independent basis, Debye-Ang):
   XX=            -13.9247   YY=            -10.2205   ZZ=            -12.0382
   XY=              0.0000   XZ=              0.0000   YZ=              0.0000
 Traceless Quadrupole moment (field-independent basis, Debye-Ang):
   XX=             -1.8636   YY=              1.8407   ZZ=              0.0229
   XY=              0.0000   XZ=              0.0000   YZ=              0.0000
 Octapole moment (field-independent basis, Debye-Ang**2):
  XXX=             -0.0000  YYY=             -0.0000  ZZZ=              0.6737  XYY=             -0.0000
  XXY=             -0.0000  XXZ=              2.2104  XZZ=             -0.0000  YZZ=             -0.0000
  YYZ=             -0.5669  XYZ=             -0.0000
 Hexadecapole moment (field-independent basis, Debye-Ang**3):
 XXXX=            -16.5213 YYYY=            -16.2647 ZZZZ=            -44.9180 XXXY=              0.0000
 XXXZ=              0.0000 YYYX=              0.0000 YYYZ=              0.0000 ZZZX=              0.0000
 ZZZY=             -0.0000 XXYY=             -5.9153 XXZZ=            -11.7339 YYZZ=             -8.2673
 XXYZ=             -0.0000 YYXZ=              0.0000 ZZXY=              0.0000
 N-N= 3.145957308752D+01 E-N=-3.317045551652D+02  KE= 1.141895633949D+02
 Symmetry A1   KE= 1.036753137810D+02
 Symmetry A2   KE= 3.151519557213D-04
 Symmetry B1   KE= 5.835505506803D+00
 Symmetry B2   KE= 4.678428955100D+00
 Calling FoFJK, ICntrl=  10005127 FMM=F ISym2X=1 I1Cent= 0 IOpClX= 0 NMat=1 NMatS=1 NMatT=0.
 ***** Axes restored to original set *****
 -------------------------------------------------------------------
 Center     Atomic                   Forces (Hartrees/Bohr)
 Number     Number              X              Y              Z
 -------------------------------------------------------------------
      1        6          -0.061552035   -0.106656059    0.000000000
      2        1          -0.000959412    0.004513236   -0.000000000
      3        1           0.004387764    0.001427340   -0.000000000
      4        8           0.058123683    0.100715484    0.000000000
 -------------------------------------------------------------------
 Cartesian Forces:  Max     0.106656059 RMS     0.048929131

 GradGradGradGradGradGradGradGradGradGradGradGradGradGradGradGradGradGrad
 Berny optimization.
 FormGI is forming the generalized inverse of G from B-inverse, IUseBI=4.
 Internal  Forces:  Max     0.116284011 RMS     0.044022790
 Search for a local minimum.
 Step number   1 out of a maximum of   20
 All quantities printed in internal units (Hartrees-Bohrs-Radians)
 Mixed Optimization -- RFO/linear search
 Second derivative matrix not updated -- first step.
 The second derivative matrix:
                          R1        R2        R3        A1        A2
           R1           0.33116
           R2           0.00000   0.33116
           R3           0.00000   0.00000   1.06485
           A1           0.00000   0.00000   0.00000   0.16000
           A2           0.00000   0.00000   0.00000   0.00000   0.16000
           A3           0.00000   0.00000   0.00000   0.00000   0.00000
           D1           0.00000   0.00000   0.00000   0.00000   0.00000
                          A3        D1
           A3           0.16000
           D1           0.00000   0.04381
 ITU=  0
     Eigenvalues ---    0.04381   0.16000   0.16000   0.33116   0.33116
     Eigenvalues ---    1.06485
 RFO step:  Lambda=-1.26908251D-02 EMin= 4.38069898D-02
 Linear search not attempted -- first point.
 Iteration  1 RMS(Cart)=  0.03233883 RMS(Int)=  0.00003323
 Iteration  2 RMS(Cart)=  0.00003538 RMS(Int)=  0.00000000
 Iteration  3 RMS(Cart)=  0.00000000 RMS(Int)=  0.00000000
 ClnCor:  largest displacement from symmetrization is 3.65D-12 for atom     1.
 Variable       Old X    -DE/DX   Delta X   Delta X   Delta X     New X
                                 (Linear)    (Quad)   (Total)
    R1        2.08849  -0.00443   0.00000  -0.01289  -0.01289   2.07560
    R2        2.08849  -0.00443   0.00000  -0.01289  -0.01289   2.07560
    R3        2.26149   0.11628   0.00000   0.10792   0.10792   2.36940
    A1        2.02872   0.00178   0.00000   0.01033   0.01033   2.03905
    A2        2.12723  -0.00089   0.00000  -0.00517  -0.00517   2.12207
    A3        2.12723  -0.00089   0.00000  -0.00517  -0.00517   2.12207
    D1        3.14159  -0.00000   0.00000  -0.00000   0.00000   3.14159
         Item               Value     Threshold  Converged?
 Maximum Force            0.116284     0.000450     NO 
 RMS     Force            0.044023     0.000300     NO 
 Maximum Displacement     0.063202     0.001800     NO 
 RMS     Displacement     0.032349     0.001200     NO 
 Predicted change in Energy=-6.422436D-03
 GradGradGradGradGradGradGradGradGradGradGradGradGradGradGradGradGradGrad

                          Input orientation:                          
 ---------------------------------------------------------------------
 Center     Atomic      Atomic             Coordinates (Angstroms)
 Number     Number       Type             X           Y           Z
 ---------------------------------------------------------------------
      1          6           0       -0.511629   -0.385778    0.000000
      2          1           0        0.011198   -1.351719    0.000000
      3          1           0       -1.609561   -0.416366   -0.000000
      4          8           0        0.115090    0.700187   -0.000000
 ---------------------------------------------------------------------
                    Distance matrix (angstroms):
                    1          2          3          4
     1  C    0.000000
     2  H    1.098358   0.000000
     3  H    1.098358   1.871295   0.000000
     4  O    1.253833   2.054534   2.054534   0.000000
 Stoichiometry    CH2O
 Framework group  C2V[C2(CO),SGV(H2)]
 Deg. of freedom     3
 Full point group                 C2V     NOp   4
 Largest Abelian subgroup         C2V     NOp   4
 Largest concise Abelian subgroup C2      NOp   2
                         Standard orientation:                         
 ---------------------------------------------------------------------
 Center     Atomic      Atomic             Coordinates (Angstroms)
 Number     Number       Type             X           Y           Z
 ---------------------------------------------------------------------
      1          6           0        0.000000   -0.000000   -0.555006
      2          1           0       -0.000000   -0.935647   -1.130292
      3          1           0        0.000000    0.935647   -1.130292
      4          8           0       -0.000000    0.000000    0.698827
 ---------------------------------------------------------------------
 Rotational constants (GHZ):         286.4029997          36.3172778          32.2303185
 Standard basis: TZVP (5D, 7F)
 There are    27 symmetry adapted cartesian basis functions of A1  symmetry.
 There are     3 symmetry adapted cartesian basis functions of A2  symmetry.
 There are     9 symmetry adapted cartesian basis functions of B1  symmetry.
 There are    13 symmetry adapted cartesian basis functions of B2  symmetry.
 There are    25 symmetry adapted basis functions of A1  symmetry.
 There are     3 symmetry adapted basis functions of A2  symmetry.
 There are     9 symmetry adapted basis functions of B1  symmetry.
 There are    13 symmetry adapted basis functions of B2  symmetry.
    50 basis functions,    86 primitive gaussians,    52 cartesian basis functions
     8 alpha electrons        8 beta electrons
       nuclear repulsion energy        30.4435912265 Hartrees.
 NAtoms=    4 NActive=    4 NUniq=    3 SFac= 1.78D+00 NAtFMM=   60 NAOKFM=F Big=F
 Integral buffers will be    131072 words long.
 Raffenetti 1 integral format.
 Two-electron integral symmetry is turned on.
 One-electron integrals computed using PRISM.
 NBasis=    50 RedAO= T EigKep=  5.42D-03  NBF=    25     3     9    13
 NBsUse=    50 1.00D-06 EigRej= -1.00D+00 NBFU=    25     3     9    13
 Initial guess from the checkpoint file:  "/rds/general/user/rk820/home/dibs-g16/fc_ht/formaldehyde/formaldehyde_es_CAM-B3LYP_freq.chk"
 B after Tr=    -0.000000   -0.000000    0.000000
         Rot=    1.000000   -0.000000   -0.000000    0.000000 Ang=   0.00 deg.
 Initial guess orbital symmetries:
       Occupied  (A1) (A1) (A1) (A1) (B2) (A1) (B1) (B2)
       Virtual   (B1) (A1) (A1) (B2) (A1) (B1) (B2) (A1) (A1) (B2)
                 (B1) (A1) (B2) (A1) (A2) (A1) (B2) (A1) (B1) (B1)
                 (B2) (A1) (B2) (B1) (A1) (A2) (A1) (A1) (B2) (B1)
                 (A1) (B2) (A2) (A1) (A1) (B2) (A1) (B1) (B2) (A1)
                 (A1) (A1)
 ExpMin= 9.52D-02 ExpMax= 2.70D+04 ExpMxC= 9.22D+02 IAcc=3 IRadAn=         5 AccDes= 0.00D+00
 Harris functional with IExCor=20419 and IRadAn=       5 diagonalized for initial guess.
 HarFok:  IExCor=20419 AccDes= 0.00D+00 IRadAn=         5 IDoV= 1 UseB2=F ITyADJ=14
 ICtDFT=  3500011 ScaDFX=  1.000000  1.000000  1.000000  1.000000
 FoFCou: FMM=F IPFlag=           0 FMFlag=      100000 FMFlg1=           0
         NFxFlg=           0 DoJE=T BraDBF=F KetDBF=T FulRan=T
         wScrn=  0.000000 ICntrl=       500 IOpCl=  0 I1Cent=   200000004 NGrid=           0
         NMat0=    1 NMatS0=      1 NMatT0=    0 NMatD0=    1 NMtDS0=    0 NMtDT0=    0
 Petite list used in FoFCou.
 Keep R1 ints in memory in symmetry-blocked form, NReq=2575049.
 Requested convergence on RMS density matrix=1.00D-08 within 128 cycles.
 Requested convergence on MAX density matrix=1.00D-06.
 Requested convergence on             energy=1.00D-06.
 No special actions if energy rises.
 Integral accuracy reduced to 1.0D-05 until final iterations.
 Initial convergence to 1.0D-05 achieved.  Increase integral accuracy.
 SCF Done:  E(RCAM-B3LYP) =  -114.493907126     A.U. after   11 cycles
            NFock= 11  Conv=0.56D-08     -V/T= 2.0053
 DoSCS=F DFT=T ScalE2(SS,OS)=  1.000000  1.000000
 ExpMin= 9.52D-02 ExpMax= 2.70D+04 ExpMxC= 9.22D+02 IAcc=3 IRadAn=         5 AccDes= 0.00D+00
 HarFok:  IExCor=  205 AccDes= 0.00D+00 IRadAn=         5 IDoV=-2 UseB2=F ITyADJ=14
 ICtDFT= 12500011 ScaDFX=  1.000000  1.000000  1.000000  1.000000
 Range of M.O.s used for correlation:     3    50
 NBasis=    50 NAE=     8 NBE=     8 NFC=     2 NFV=     0
 NROrb=     48 NOA=     6 NOB=     6 NVA=    42 NVB=    42
 Keep R1, R2, and R3 ints in memory in symmetry-blocked form, NReq=2619904.
 Orbital symmetries:
       Occupied  (A1) (A1) (A1) (A1) (B2) (A1) (B1) (B2)
       Virtual   (B1) (A1) (A1) (B2) (A1) (B1) (B2) (A1) (A1) (B2)
                 (A1) (B1) (B2) (A1) (A2) (A1) (A1) (B2) (B1) (B1)
                 (B2) (A1) (B2) (B1) (A1) (A2) (A1) (B2) (A1) (B1)
                 (A1) (B2) (A2) (A1) (A1) (B2) (B1) (A1) (B2) (A1)
                 (A1) (A1)
 Generating guess from densities on rwf.
 Convergence on wavefunction:    0.000001000000000
 Iteration     1 Dimension     4 NMult     0 NNew      4
 CISAX will form     4 AO SS matrices at one time.
 Iteration     2 Dimension     8 NMult     4 NNew      4
 Iteration     3 Dimension    12 NMult     8 NNew      4
 Iteration     4 Dimension    16 NMult    12 NNew      4
 Iteration     5 Dimension    20 NMult    16 NNew      4
 Iteration     6 Dimension    24 NMult    20 NNew      4
 Iteration     7 Dimension    28 NMult    24 NNew      4
 Iteration     8 Dimension    30 NMult    28 NNew      2
 ***********************************************************************
 Excited states from <AA,BB:AA,BB> singles matrix:
 ***********************************************************************
 
 Ground to excited state transition densities written to RWF  633
 Ground to excited state transition electric dipole moments (Au):
       state          X           Y           Z        Dip. S.      Osc.
         1         0.0000      0.0000     -0.0000      0.0000      0.0000
         2        -0.0000     -0.5745     -0.0000      0.3300      0.0679
 Ground to excited state transition velocity dipole moments (Au):
       state          X           Y           Z        Dip. S.      Osc.
         1        -0.0000     -0.0000     -0.0000      0.0000      0.0000
         2         0.0000      0.1652      0.0000      0.0273      0.0590
 Ground to excited state transition magnetic dipole moments (Au):
       state          X           Y           Z
         1        -0.0000      0.0000      1.2045
         2         0.9326     -0.0000      0.0000
 Ground to excited state transition velocity quadrupole moments (Au):
       state          XX          YY          ZZ          XY          XZ          YZ
         1        -0.0000      0.0000      0.0000     -0.0860      0.0000      0.0000
         2        -0.0000      0.0000     -0.0000     -0.0000     -0.0000     -0.6990
 <0|del|b> * <b|rxdel|0> + <0|del|b> * <b|delr+rdel|0>
 Rotatory Strengths (R) in cgs (10**-40 erg-esu-cm/Gauss)
       state          XX          YY          ZZ    R(velocity)    E-M Angle
         1        -0.0000     -0.0000      0.0000     -0.0000       90.00
         2        -0.0000      0.0000      0.0000      0.0000       90.00
 1/2[<0|r|b>*<b|rxdel|0> + (<0|rxdel|b>*<b|r|0>)*]
 Rotatory Strengths (R) in cgs (10**-40 erg-esu-cm/Gauss)
       state          XX          YY          ZZ     R(length)
         1         0.0000     -0.0000      0.0000      0.0000
         2         0.0000     -0.0000      0.0000      0.0000
  1/2[<0|del|b>*<b|r|0> + (<0|r|b>*<b|del|0>)*] (Au)
       state          X           Y           Z        Dip. S.   Osc.(frdel)
         1        -0.0000     -0.0000      0.0000      0.0000      0.0000
         2        -0.0000     -0.0949     -0.0000      0.0949      0.0633

 Excitation energies and oscillator strengths:
 
 Excited State   1:      Singlet-A2     3.6566 eV  339.07 nm  f=0.0000  <S**2>=0.000
       8 ->  9         0.70504
 This state for optimization and/or second-order correction.
 Total Energy, E(TD-HF/TD-DFT) =  -114.359528342    
 Copying the excited state density for this state as the 1-particle RhoCI density.
 
 Excited State   2:      Singlet-B2     8.3933 eV  147.72 nm  f=0.0679  <S**2>=0.000
       8 -> 10         0.68801
       8 -> 11         0.15534
 SavETr:  write IOETrn=   770 NScale= 10 NData=  16 NLR=1 NState=    2 LETran=      46.
 Spin AA IR=    1 I=  14 J=   2 Mu=   38 Nu=   12 IOp=3 MuP=    38 NuP=   -12
 Err= 2.63D-01 FactIJ= 1.0 Fact=-1.0
 A= 1.3168841913D-01 AP=-1.3168841913D-01 B= 1.3168841913D-01 BP=-1.3168841913D-01
          IDoAtm=1111
          Differentiating once with respect to electric field.
                with respect to dipole field.
          Differentiating once with respect to nuclear coordinates.
 Keep R1 ints in memory in symmetry-blocked form, NReq=2577698.
          There are     1 degrees of freedom in the 1st order CPHF.  IDoFFX=0 NUNeed=     1.
 LinEq1:  Iter=  0 NonCon=     1 RMS=5.45D-02 Max=8.07D-01 NDo=     1
 AX will form     1 AO Fock derivatives at one time.
 LinEq1:  Iter=  1 NonCon=     1 RMS=1.13D-02 Max=6.61D-02 NDo=     1
 LinEq1:  Iter=  2 NonCon=     1 RMS=4.65D-03 Max=4.16D-02 NDo=     1
 LinEq1:  Iter=  3 NonCon=     1 RMS=1.34D-03 Max=9.06D-03 NDo=     1
 LinEq1:  Iter=  4 NonCon=     1 RMS=2.63D-04 Max=2.17D-03 NDo=     1
 LinEq1:  Iter=  5 NonCon=     1 RMS=3.44D-05 Max=2.26D-04 NDo=     1
 LinEq1:  Iter=  6 NonCon=     1 RMS=3.48D-06 Max=2.65D-05 NDo=     1
 LinEq1:  Iter=  7 NonCon=     1 RMS=5.46D-07 Max=3.74D-06 NDo=     1
 LinEq1:  Iter=  8 NonCon=     1 RMS=5.00D-08 Max=3.37D-07 NDo=     1
 LinEq1:  Iter=  9 NonCon=     1 RMS=3.09D-09 Max=2.43D-08 NDo=     1
 LinEq1:  Iter= 10 NonCon=     1 RMS=2.16D-10 Max=1.14D-09 NDo=     1
 LinEq1:  Iter= 11 NonCon=     0 RMS=2.38D-11 Max=1.46D-10 NDo=     1
 Linear equations converged to 1.000D-10 1.000D-09 after    11 iterations.
 End of Minotr F.D. properties file   721 does not exist.
 End of Minotr F.D. properties file   722 does not exist.
 End of Minotr F.D. properties file   788 does not exist.
 Calling FoFJK, ICntrl=  10005127 FMM=F ISym2X=1 I1Cent= 0 IOpClX= 0 NMat=1 NMatS=1 NMatT=0.
 ***** Axes restored to original set *****
 -------------------------------------------------------------------
 Center     Atomic                   Forces (Hartrees/Bohr)
 Number     Number              X              Y              Z
 -------------------------------------------------------------------
      1        6          -0.021220311   -0.036770105    0.000000000
      2        1           0.001723259    0.005270861   -0.000000000
      3        1           0.003701568    0.004129164   -0.000000000
      4        8           0.015795485    0.027370080    0.000000000
 -------------------------------------------------------------------
 Cartesian Forces:  Max     0.036770105 RMS     0.015444697

 GradGradGradGradGradGradGradGradGradGradGradGradGradGradGradGradGradGrad
 Berny optimization.
 Using GEDIIS/GDIIS optimizer.
 FormGI is forming the generalized inverse of G from B-inverse, IUseBI=4.
 Internal  Forces:  Max     0.031600928 RMS     0.012388048
 Search for a local minimum.
 Step number   2 out of a maximum of   20
 All quantities printed in internal units (Hartrees-Bohrs-Radians)
 Mixed Optimization -- RFO/linear search
 Update second derivatives using D2CorX and points    1    2
 DE= -7.88D-03 DEPred=-6.42D-03 R= 1.23D+00
 TightC=F SS=  1.41D+00  RLast= 1.10D-01 DXNew= 5.0454D-01 3.3052D-01
 Trust test= 1.23D+00 RLast= 1.10D-01 DXMaxT set to 3.31D-01
 The second derivative matrix:
                          R1        R2        R3        A1        A2
           R1           0.32975
           R2          -0.00141   0.32975
           R3           0.03338   0.03338   0.79993
           A1           0.00082   0.00082  -0.05039   0.16136
           A2          -0.00041  -0.00041   0.02519  -0.00068   0.16034
           A3          -0.00041  -0.00041   0.02519  -0.00068   0.00034
           D1           0.00000   0.00000  -0.00000   0.00000  -0.00000
                          A3        D1
           A3           0.16034
           D1          -0.00000   0.04381
 ITU=  1  0
 Use linear search instead of GDIIS.
     Eigenvalues ---    0.04381   0.15591   0.16000   0.32399   0.33116
     Eigenvalues ---    0.81040
 RFO step:  Lambda=-8.24251033D-04 EMin= 4.38069898D-02
 Quartic linear search produced a step of  0.52500.
 Iteration  1 RMS(Cart)=  0.02170818 RMS(Int)=  0.00056141
 Iteration  2 RMS(Cart)=  0.00058048 RMS(Int)=  0.00000011
 Iteration  3 RMS(Cart)=  0.00000009 RMS(Int)=  0.00000000
 ClnCor:  largest displacement from symmetrization is 4.94D-10 for atom     4.
 Variable       Old X    -DE/DX   Delta X   Delta X   Delta X     New X
                                 (Linear)    (Quad)   (Total)
    R1        2.07560  -0.00382  -0.00677  -0.01496  -0.02172   2.05387
    R2        2.07560  -0.00382  -0.00677  -0.01496  -0.02172   2.05387
    R3        2.36940   0.03160   0.05666   0.00337   0.06003   2.42943
    A1        2.03905   0.00557   0.00543   0.05376   0.05918   2.09824
    A2        2.12207  -0.00278  -0.00271  -0.02688  -0.02959   2.09247
    A3        2.12207  -0.00278  -0.00271  -0.02688  -0.02959   2.09247
    D1        3.14159  -0.00000   0.00000   0.00000   0.00000   3.14159
         Item               Value     Threshold  Converged?
 Maximum Force            0.031601     0.000450     NO 
 RMS     Force            0.012388     0.000300     NO 
 Maximum Displacement     0.040547     0.001800     NO 
 RMS     Displacement     0.021534     0.001200     NO 
 Predicted change in Energy=-8.939959D-04
 GradGradGradGradGradGradGradGradGradGradGradGradGradGradGradGradGradGrad

                          Input orientation:                          
 ---------------------------------------------------------------------
 Center     Atomic      Atomic             Coordinates (Angstroms)
 Number     Number       Type             X           Y           Z
 ---------------------------------------------------------------------
      1          6           0       -0.524012   -0.407234    0.000000
      2          1           0        0.021397   -1.347339    0.000000
      3          1           0       -1.610872   -0.405345   -0.000000
      4          8           0        0.118584    0.706243   -0.000000
 ---------------------------------------------------------------------
                    Distance matrix (angstroms):
                    1          2          3          4
     1  C    0.000000
     2  H    1.086862   0.000000
     3  H    1.086862   1.884583   0.000000
     4  O    1.285598   2.055881   2.055881   0.000000
 Stoichiometry    CH2O
 Framework group  C2V[C2(CO),SGV(H2)]
 Deg. of freedom     3
 Full point group                 C2V     NOp   4
 Largest Abelian subgroup         C2V     NOp   4
 Largest concise Abelian subgroup C2      NOp   2
                         Standard orientation:                         
 ---------------------------------------------------------------------
 Center     Atomic      Atomic             Coordinates (Angstroms)
 Number     Number       Type             X           Y           Z
 ---------------------------------------------------------------------
      1          6           0       -0.000000    0.000000   -0.575096
      2          1           0       -0.000000   -0.942292   -1.116718
      3          1           0        0.000000    0.942292   -1.116718
      4          8           0        0.000000   -0.000000    0.710502
 ---------------------------------------------------------------------
 Rotational constants (GHZ):         282.3783071          35.1108813          31.2279964
 Standard basis: TZVP (5D, 7F)
 There are    27 symmetry adapted cartesian basis functions of A1  symmetry.
 There are     3 symmetry adapted cartesian basis functions of A2  symmetry.
 There are     9 symmetry adapted cartesian basis functions of B1  symmetry.
 There are    13 symmetry adapted cartesian basis functions of B2  symmetry.
 There are    25 symmetry adapted basis functions of A1  symmetry.
 There are     3 symmetry adapted basis functions of A2  symmetry.
 There are     9 symmetry adapted basis functions of B1  symmetry.
 There are    13 symmetry adapted basis functions of B2  symmetry.
    50 basis functions,    86 primitive gaussians,    52 cartesian basis functions
     8 alpha electrons        8 beta electrons
       nuclear repulsion energy        29.9995122436 Hartrees.
 NAtoms=    4 NActive=    4 NUniq=    3 SFac= 1.78D+00 NAtFMM=   60 NAOKFM=F Big=F
 Integral buffers will be    131072 words long.
 Raffenetti 1 integral format.
 Two-electron integral symmetry is turned on.
 One-electron integrals computed using PRISM.
 NBasis=    50 RedAO= T EigKep=  5.40D-03  NBF=    25     3     9    13
 NBsUse=    50 1.00D-06 EigRej= -1.00D+00 NBFU=    25     3     9    13
 Initial guess from the checkpoint file:  "/rds/general/user/rk820/home/dibs-g16/fc_ht/formaldehyde/formaldehyde_es_CAM-B3LYP_freq.chk"
 B after Tr=     0.000000   -0.000000   -0.000000
         Rot=    1.000000   -0.000000    0.000000    0.000000 Ang=   0.00 deg.
 Initial guess orbital symmetries:
       Occupied  (A1) (A1) (A1) (A1) (B2) (A1) (B1) (B2)
       Virtual   (B1) (A1) (A1) (B2) (A1) (B1) (B2) (A1) (A1) (B2)
                 (A1) (B1) (B2) (A1) (A2) (A1) (A1) (B2) (B1) (B1)
                 (B2) (A1) (B2) (B1) (A1) (A2) (A1) (B2) (A1) (B1)
                 (A1) (B2) (A2) (A1) (A1) (B2) (B1) (A1) (B2) (A1)
                 (A1) (A1)
 ExpMin= 9.52D-02 ExpMax= 2.70D+04 ExpMxC= 9.22D+02 IAcc=3 IRadAn=         5 AccDes= 0.00D+00
 Harris functional with IExCor=20419 and IRadAn=       5 diagonalized for initial guess.
 HarFok:  IExCor=20419 AccDes= 0.00D+00 IRadAn=         5 IDoV= 1 UseB2=F ITyADJ=14
 ICtDFT=  3500011 ScaDFX=  1.000000  1.000000  1.000000  1.000000
 FoFCou: FMM=F IPFlag=           0 FMFlag=      100000 FMFlg1=           0
         NFxFlg=           0 DoJE=T BraDBF=F KetDBF=T FulRan=T
         wScrn=  0.000000 ICntrl=       500 IOpCl=  0 I1Cent=   200000004 NGrid=           0
         NMat0=    1 NMatS0=      1 NMatT0=    0 NMatD0=    1 NMtDS0=    0 NMtDT0=    0
 Petite list used in FoFCou.
 Keep R1 ints in memory in symmetry-blocked form, NReq=2575049.
 Requested convergence on RMS density matrix=1.00D-08 within 128 cycles.
 Requested convergence on MAX density matrix=1.00D-06.
 Requested convergence on             energy=1.00D-06.
 No special actions if energy rises.
 Integral accuracy reduced to 1.0D-05 until final iterations.
 Initial convergence to 1.0D-05 achieved.  Increase integral accuracy.
 SCF Done:  E(RCAM-B3LYP) =  -114.488043780     A.U. after   11 cycles
            NFock= 11  Conv=0.44D-08     -V/T= 2.0058
 DoSCS=F DFT=T ScalE2(SS,OS)=  1.000000  1.000000
 ExpMin= 9.52D-02 ExpMax= 2.70D+04 ExpMxC= 9.22D+02 IAcc=3 IRadAn=         5 AccDes= 0.00D+00
 HarFok:  IExCor=  205 AccDes= 0.00D+00 IRadAn=         5 IDoV=-2 UseB2=F ITyADJ=14
 ICtDFT= 12500011 ScaDFX=  1.000000  1.000000  1.000000  1.000000
 Range of M.O.s used for correlation:     3    50
 NBasis=    50 NAE=     8 NBE=     8 NFC=     2 NFV=     0
 NROrb=     48 NOA=     6 NOB=     6 NVA=    42 NVB=    42
 Keep R1, R2, and R3 ints in memory in symmetry-blocked form, NReq=2619904.
 Orbital symmetries:
       Occupied  (A1) (A1) (A1) (A1) (B2) (A1) (B1) (B2)
       Virtual   (B1) (A1) (A1) (B2) (A1) (B1) (B2) (A1) (A1) (B2)
                 (A1) (B1) (B2) (A1) (A2) (A1) (B2) (A1) (B1) (B1)
                 (B2) (A1) (B2) (B1) (A1) (A2) (A1) (B2) (A1) (B1)
                 (A1) (B2) (A2) (A1) (A1) (B2) (B1) (A1) (B2) (A1)
                 (A1) (A1)
 Generating guess from densities on rwf.
 Convergence on wavefunction:    0.000001000000000
 Iteration     1 Dimension     4 NMult     0 NNew      4
 CISAX will form     4 AO SS matrices at one time.
 Iteration     2 Dimension     8 NMult     4 NNew      4
 Iteration     3 Dimension    12 NMult     8 NNew      4
 Iteration     4 Dimension    16 NMult    12 NNew      4
 Iteration     5 Dimension    20 NMult    16 NNew      4
 Iteration     6 Dimension    24 NMult    20 NNew      4
 Iteration     7 Dimension    28 NMult    24 NNew      4
 Iteration     8 Dimension    30 NMult    28 NNew      2
 Iteration     9 Dimension    32 NMult    30 NNew      2
 ***********************************************************************
 Excited states from <AA,BB:AA,BB> singles matrix:
 ***********************************************************************
 
 Ground to excited state transition densities written to RWF  633
 Ground to excited state transition electric dipole moments (Au):
       state          X           Y           Z        Dip. S.      Osc.
         1         0.0000      0.0000     -0.0000      0.0000      0.0000
         2        -0.0000     -0.4773     -0.0000      0.2278      0.0470
 Ground to excited state transition velocity dipole moments (Au):
       state          X           Y           Z        Dip. S.      Osc.
         1        -0.0000     -0.0000     -0.0000      0.0000      0.0000
         2         0.0000      0.1345      0.0000      0.0181      0.0390
 Ground to excited state transition magnetic dipole moments (Au):
       state          X           Y           Z
         1        -0.0000     -0.0000      1.1886
         2         0.9683     -0.0000      0.0000
 Ground to excited state transition velocity quadrupole moments (Au):
       state          XX          YY          ZZ          XY          XZ          YZ
         1        -0.0000      0.0000      0.0000     -0.0797      0.0000      0.0000
         2        -0.0000     -0.0000     -0.0000     -0.0000     -0.0000     -0.6432
 <0|del|b> * <b|rxdel|0> + <0|del|b> * <b|delr+rdel|0>
 Rotatory Strengths (R) in cgs (10**-40 erg-esu-cm/Gauss)
       state          XX          YY          ZZ    R(velocity)    E-M Angle
         1        -0.0000     -0.0000      0.0000     -0.0000       90.00
         2        -0.0000      0.0000      0.0000      0.0000       90.00
 1/2[<0|r|b>*<b|rxdel|0> + (<0|rxdel|b>*<b|r|0>)*]
 Rotatory Strengths (R) in cgs (10**-40 erg-esu-cm/Gauss)
       state          XX          YY          ZZ     R(length)
         1         0.0000      0.0000      0.0000      0.0000
         2         0.0000     -0.0000      0.0000      0.0000
  1/2[<0|del|b>*<b|r|0> + (<0|r|b>*<b|del|0>)*] (Au)
       state          X           Y           Z        Dip. S.   Osc.(frdel)
         1        -0.0000     -0.0000      0.0000      0.0000      0.0000
         2        -0.0000     -0.0642     -0.0000      0.0642      0.0428

 Excitation energies and oscillator strengths:
 
 Excited State   1:      Singlet-A2     3.4610 eV  358.23 nm  f=0.0000  <S**2>=0.000
       8 ->  9         0.70542
 This state for optimization and/or second-order correction.
 Total Energy, E(TD-HF/TD-DFT) =  -114.360853572    
 Copying the excited state density for this state as the 1-particle RhoCI density.
 
 Excited State   2:      Singlet-B2     8.4239 eV  147.18 nm  f=0.0470  <S**2>=0.000
       8 -> 10         0.68328
       8 -> 11         0.17512
 SavETr:  write IOETrn=   770 NScale= 10 NData=  16 NLR=1 NState=    2 LETran=      46.
 Spin AA IR=    1 I=  12 J=   5 Mu=   38 Nu=   12 IOp=3 MuP=    38 NuP=   -12
 Err= 2.58D-01 FactIJ= 1.0 Fact=-1.0
 A= 1.2919976120D-01 AP=-1.2919976120D-01 B= 1.2919976120D-01 BP=-1.2919976120D-01
          IDoAtm=1111
          Differentiating once with respect to electric field.
                with respect to dipole field.
          Differentiating once with respect to nuclear coordinates.
 Keep R1 ints in memory in symmetry-blocked form, NReq=2577698.
          There are     1 degrees of freedom in the 1st order CPHF.  IDoFFX=0 NUNeed=     1.
 LinEq1:  Iter=  0 NonCon=     1 RMS=6.12D-02 Max=9.17D-01 NDo=     1
 AX will form     1 AO Fock derivatives at one time.
 LinEq1:  Iter=  1 NonCon=     1 RMS=1.19D-02 Max=5.96D-02 NDo=     1
 LinEq1:  Iter=  2 NonCon=     1 RMS=4.69D-03 Max=4.09D-02 NDo=     1
 LinEq1:  Iter=  3 NonCon=     1 RMS=1.46D-03 Max=1.00D-02 NDo=     1
 LinEq1:  Iter=  4 NonCon=     1 RMS=2.94D-04 Max=2.44D-03 NDo=     1
 LinEq1:  Iter=  5 NonCon=     1 RMS=3.97D-05 Max=2.82D-04 NDo=     1
 LinEq1:  Iter=  6 NonCon=     1 RMS=4.96D-06 Max=3.82D-05 NDo=     1
 LinEq1:  Iter=  7 NonCon=     1 RMS=7.49D-07 Max=4.83D-06 NDo=     1
 LinEq1:  Iter=  8 NonCon=     1 RMS=5.93D-08 Max=3.17D-07 NDo=     1
 LinEq1:  Iter=  9 NonCon=     1 RMS=3.85D-09 Max=2.81D-08 NDo=     1
 LinEq1:  Iter= 10 NonCon=     1 RMS=3.59D-10 Max=2.09D-09 NDo=     1
 LinEq1:  Iter= 11 NonCon=     0 RMS=4.10D-11 Max=2.60D-10 NDo=     1
 Linear equations converged to 1.000D-10 1.000D-09 after    11 iterations.
 End of Minotr F.D. properties file   721 does not exist.
 End of Minotr F.D. properties file   722 does not exist.
 End of Minotr F.D. properties file   788 does not exist.
 Calling FoFJK, ICntrl=  10005127 FMM=F ISym2X=1 I1Cent= 0 IOpClX= 0 NMat=1 NMatS=1 NMatT=0.
 ***** Axes restored to original set *****
 -------------------------------------------------------------------
 Center     Atomic                   Forces (Hartrees/Bohr)
 Number     Number              X              Y              Z
 -------------------------------------------------------------------
      1        6          -0.000715577   -0.001239936   -0.000000000
      2        1           0.002473158   -0.000250708    0.000000000
      3        1          -0.001454432    0.002015935    0.000000000
      4        8          -0.000303149   -0.000525290    0.000000000
 -------------------------------------------------------------------
 Cartesian Forces:  Max     0.002473158 RMS     0.001109657

 GradGradGradGradGradGradGradGradGradGradGradGradGradGradGradGradGradGrad
 Berny optimization.
 Using GEDIIS/GDIIS optimizer.
 FormGI is forming the generalized inverse of G from B-inverse, IUseBI=4.
 Internal  Forces:  Max     0.002756846 RMS     0.001512769
 Search for a local minimum.
 Step number   3 out of a maximum of   20
 All quantities printed in internal units (Hartrees-Bohrs-Radians)
 Mixed Optimization -- RFO/linear search
 Update second derivatives using D2CorX and points    1    2    3
 DE= -1.33D-03 DEPred=-8.94D-04 R= 1.48D+00
 TightC=F SS=  1.41D+00  RLast= 9.90D-02 DXNew= 5.5587D-01 2.9700D-01
 Trust test= 1.48D+00 RLast= 9.90D-02 DXMaxT set to 3.31D-01
 The second derivative matrix:
                          R1        R2        R3        A1        A2
           R1           0.33271
           R2           0.00156   0.33271
           R3           0.02627   0.02627   0.70418
           A1           0.00464   0.00464  -0.10049   0.15523
           A2          -0.00232  -0.00232   0.05024   0.00239   0.15881
           A3          -0.00232  -0.00232   0.05024   0.00239  -0.00119
           D1           0.00000   0.00000  -0.00000   0.00000  -0.00000
                          A3        D1
           A3           0.15881
           D1          -0.00000   0.04381
 ITU=  1  1  0
 Use linear search instead of GDIIS.
     Eigenvalues ---    0.04381   0.12544   0.16000   0.33116   0.33243
     Eigenvalues ---    0.73342
 RFO step:  Lambda=-8.48724113D-05 EMin= 4.38069898D-02
 Quartic linear search produced a step of  0.06445.
 Iteration  1 RMS(Cart)=  0.00918363 RMS(Int)=  0.00005952
 Iteration  2 RMS(Cart)=  0.00005127 RMS(Int)=  0.00000000
 Iteration  3 RMS(Cart)=  0.00000000 RMS(Int)=  0.00000000
 ClnCor:  largest displacement from symmetrization is 3.22D-12 for atom     1.
 Variable       Old X    -DE/DX   Delta X   Delta X   Delta X     New X
                                 (Linear)    (Quad)   (Total)
    R1        2.05387   0.00146  -0.00140   0.00500   0.00360   2.05747
    R2        2.05387   0.00146  -0.00140   0.00500   0.00360   2.05747
    R3        2.42943  -0.00061   0.00387  -0.00054   0.00333   2.43276
    A1        2.09824   0.00276   0.00381   0.01660   0.02041   2.11865
    A2        2.09247  -0.00138  -0.00191  -0.00830  -0.01021   2.08227
    A3        2.09247  -0.00138  -0.00191  -0.00830  -0.01021   2.08227
    D1        3.14159   0.00000   0.00000   0.00000   0.00000   3.14159
         Item               Value     Threshold  Converged?
 Maximum Force            0.002757     0.000450     NO 
 RMS     Force            0.001513     0.000300     NO 
 Maximum Displacement     0.015388     0.001800     NO 
 RMS     Displacement     0.009172     0.001200     NO 
 Predicted change in Energy=-4.548212D-05
 GradGradGradGradGradGradGradGradGradGradGradGradGradGradGradGradGradGrad

                          Input orientation:                          
 ---------------------------------------------------------------------
 Center     Atomic      Atomic             Coordinates (Angstroms)
 Number     Number       Type             X           Y           Z
 ---------------------------------------------------------------------
      1          6           0       -0.526409   -0.411389    0.000000
      2          1           0        0.029540   -1.347518    0.000000
      3          1           0       -1.615100   -0.398384   -0.000000
      4          8           0        0.117068    0.703615   -0.000000
 ---------------------------------------------------------------------
                    Distance matrix (angstroms):
                    1          2          3          4
     1  C    0.000000
     2  H    1.088769   0.000000
     3  H    1.088769   1.898867   0.000000
     4  O    1.287360   2.052999   2.052999   0.000000
 Stoichiometry    CH2O
 Framework group  C2V[C2(CO),SGV(H2)]
 Deg. of freedom     3
 Full point group                 C2V     NOp   4
 Largest Abelian subgroup         C2V     NOp   4
 Largest concise Abelian subgroup C2      NOp   2
                         Standard orientation:                         
 ---------------------------------------------------------------------
 Center     Atomic      Atomic             Coordinates (Angstroms)
 Number     Number       Type             X           Y           Z
 ---------------------------------------------------------------------
      1          6           0        0.000000   -0.000000   -0.577066
      2          1           0       -0.000000   -0.949434   -1.109976
      3          1           0        0.000000    0.949434   -1.109976
      4          8           0       -0.000000    0.000000    0.710294
 ---------------------------------------------------------------------
 Rotational constants (GHZ):         278.1460089          35.1249751          31.1866472
 Standard basis: TZVP (5D, 7F)
 There are    27 symmetry adapted cartesian basis functions of A1  symmetry.
 There are     3 symmetry adapted cartesian basis functions of A2  symmetry.
 There are     9 symmetry adapted cartesian basis functions of B1  symmetry.
 There are    13 symmetry adapted cartesian basis functions of B2  symmetry.
 There are    25 symmetry adapted basis functions of A1  symmetry.
 There are     3 symmetry adapted basis functions of A2  symmetry.
 There are     9 symmetry adapted basis functions of B1  symmetry.
 There are    13 symmetry adapted basis functions of B2  symmetry.
    50 basis functions,    86 primitive gaussians,    52 cartesian basis functions
     8 alpha electrons        8 beta electrons
       nuclear repulsion energy        29.9658972831 Hartrees.
 NAtoms=    4 NActive=    4 NUniq=    3 SFac= 1.78D+00 NAtFMM=   60 NAOKFM=F Big=F
 Integral buffers will be    131072 words long.
 Raffenetti 1 integral format.
 Two-electron integral symmetry is turned on.
 One-electron integrals computed using PRISM.
 NBasis=    50 RedAO= T EigKep=  5.47D-03  NBF=    25     3     9    13
 NBsUse=    50 1.00D-06 EigRej= -1.00D+00 NBFU=    25     3     9    13
 Initial guess from the checkpoint file:  "/rds/general/user/rk820/home/dibs-g16/fc_ht/formaldehyde/formaldehyde_es_CAM-B3LYP_freq.chk"
 B after Tr=     0.000000   -0.000000   -0.000000
         Rot=    1.000000    0.000000    0.000000    0.000000 Ang=   0.00 deg.
 Initial guess orbital symmetries:
       Occupied  (A1) (A1) (A1) (A1) (B2) (A1) (B1) (B2)
       Virtual   (B1) (A1) (A1) (B2) (A1) (B1) (B2) (A1) (A1) (B2)
                 (A1) (B1) (B2) (A1) (A2) (A1) (B2) (A1) (B1) (B1)
                 (B2) (A1) (B2) (B1) (A1) (A2) (A1) (B2) (A1) (B1)
                 (A1) (B2) (A2) (A1) (A1) (B2) (B1) (A1) (B2) (A1)
                 (A1) (A1)
 Keep R1 ints in memory in symmetry-blocked form, NReq=2575049.
 Requested convergence on RMS density matrix=1.00D-08 within 128 cycles.
 Requested convergence on MAX density matrix=1.00D-06.
 Requested convergence on             energy=1.00D-06.
 No special actions if energy rises.
 SCF Done:  E(RCAM-B3LYP) =  -114.487609714     A.U. after    9 cycles
            NFock=  9  Conv=0.20D-08     -V/T= 2.0058
 DoSCS=F DFT=T ScalE2(SS,OS)=  1.000000  1.000000
 ExpMin= 9.52D-02 ExpMax= 2.70D+04 ExpMxC= 9.22D+02 IAcc=3 IRadAn=         5 AccDes= 0.00D+00
 HarFok:  IExCor=  205 AccDes= 0.00D+00 IRadAn=         5 IDoV=-2 UseB2=F ITyADJ=14
 ICtDFT= 12500011 ScaDFX=  1.000000  1.000000  1.000000  1.000000
 Range of M.O.s used for correlation:     3    50
 NBasis=    50 NAE=     8 NBE=     8 NFC=     2 NFV=     0
 NROrb=     48 NOA=     6 NOB=     6 NVA=    42 NVB=    42
 Keep R1, R2, and R3 ints in memory in symmetry-blocked form, NReq=2619904.
 Orbital symmetries:
       Occupied  (A1) (A1) (A1) (A1) (B2) (A1) (B1) (B2)
       Virtual   (B1) (A1) (A1) (B2) (A1) (B1) (B2) (A1) (A1) (B2)
                 (A1) (B1) (B2) (A1) (A2) (A1) (B2) (A1) (B1) (B1)
                 (B2) (A1) (B2) (B1) (A1) (A2) (A1) (B2) (A1) (B1)
                 (A1) (B2) (A2) (A1) (A1) (B2) (B1) (A1) (B2) (A1)
                 (A1) (A1)
 Generating guess from densities on rwf.
 Convergence on wavefunction:    0.000001000000000
 Iteration     1 Dimension     4 NMult     0 NNew      4
 CISAX will form     4 AO SS matrices at one time.
 Iteration     2 Dimension     8 NMult     4 NNew      4
 Iteration     3 Dimension    12 NMult     8 NNew      4
 Iteration     4 Dimension    16 NMult    12 NNew      4
 Iteration     5 Dimension    20 NMult    16 NNew      4
 Iteration     6 Dimension    24 NMult    20 NNew      4
 Iteration     7 Dimension    26 NMult    24 NNew      2
 Iteration     8 Dimension    28 NMult    26 NNew      2
 ***********************************************************************
 Excited states from <AA,BB:AA,BB> singles matrix:
 ***********************************************************************
 
 Ground to excited state transition densities written to RWF  633
 Ground to excited state transition electric dipole moments (Au):
       state          X           Y           Z        Dip. S.      Osc.
         1         0.0000      0.0000     -0.0000      0.0000      0.0000
         2        -0.0000     -0.4731      0.0000      0.2238      0.0460
 Ground to excited state transition velocity dipole moments (Au):
       state          X           Y           Z        Dip. S.      Osc.
         1        -0.0000     -0.0000     -0.0000      0.0000      0.0000
         2         0.0000      0.1322      0.0000      0.0175      0.0378
 Ground to excited state transition magnetic dipole moments (Au):
       state          X           Y           Z
         1         0.0000      0.0000      1.1884
         2         0.9828     -0.0000      0.0000
 Ground to excited state transition velocity quadrupole moments (Au):
       state          XX          YY          ZZ          XY          XZ          YZ
         1        -0.0000      0.0000      0.0000     -0.0796      0.0000      0.0000
         2        -0.0000     -0.0000     -0.0000      0.0000     -0.0000     -0.6364
 <0|del|b> * <b|rxdel|0> + <0|del|b> * <b|delr+rdel|0>
 Rotatory Strengths (R) in cgs (10**-40 erg-esu-cm/Gauss)
       state          XX          YY          ZZ    R(velocity)    E-M Angle
         1        -0.0000     -0.0000     -0.0000     -0.0000       90.00
         2        -0.0000      0.0000      0.0000      0.0000       90.00
 1/2[<0|r|b>*<b|rxdel|0> + (<0|rxdel|b>*<b|r|0>)*]
 Rotatory Strengths (R) in cgs (10**-40 erg-esu-cm/Gauss)
       state          XX          YY          ZZ     R(length)
         1        -0.0000     -0.0000      0.0000      0.0000
         2         0.0000     -0.0000     -0.0000      0.0000
  1/2[<0|del|b>*<b|r|0> + (<0|r|b>*<b|del|0>)*] (Au)
       state          X           Y           Z        Dip. S.   Osc.(frdel)
         1        -0.0000     -0.0000      0.0000      0.0000      0.0000
         2        -0.0000     -0.0626      0.0000      0.0626      0.0417

 Excitation energies and oscillator strengths:
 
 Excited State   1:      Singlet-A2     3.4476 eV  359.62 nm  f=0.0000  <S**2>=0.000
       8 ->  9         0.70544
 This state for optimization and/or second-order correction.
 Total Energy, E(TD-HF/TD-DFT) =  -114.360912393    
 Copying the excited state density for this state as the 1-particle RhoCI density.
 
 Excited State   2:      Singlet-B2     8.3975 eV  147.64 nm  f=0.0460  <S**2>=0.000
       8 -> 10         0.68342
       8 -> 11         0.17459
 SavETr:  write IOETrn=   770 NScale= 10 NData=  16 NLR=1 NState=    2 LETran=      46.
 Spin AA IR=    1 I=  31 J=   2 Mu=   38 Nu=   12 IOp=3 MuP=    38 NuP=   -12
 Err= 2.58D-01 FactIJ= 1.0 Fact=-1.0
 A= 1.2915035241D-01 AP=-1.2915035241D-01 B= 1.2915035241D-01 BP=-1.2915035241D-01
          IDoAtm=1111
          Differentiating once with respect to electric field.
                with respect to dipole field.
          Differentiating once with respect to nuclear coordinates.
 Keep R1 ints in memory in symmetry-blocked form, NReq=2577698.
          There are     1 degrees of freedom in the 1st order CPHF.  IDoFFX=0 NUNeed=     1.
 LinEq1:  Iter=  0 NonCon=     1 RMS=6.16D-02 Max=9.24D-01 NDo=     1
 AX will form     1 AO Fock derivatives at one time.
 LinEq1:  Iter=  1 NonCon=     1 RMS=1.20D-02 Max=5.96D-02 NDo=     1
 LinEq1:  Iter=  2 NonCon=     1 RMS=4.69D-03 Max=4.08D-02 NDo=     1
 LinEq1:  Iter=  3 NonCon=     1 RMS=1.47D-03 Max=1.01D-02 NDo=     1
 LinEq1:  Iter=  4 NonCon=     1 RMS=2.95D-04 Max=2.46D-03 NDo=     1
 LinEq1:  Iter=  5 NonCon=     1 RMS=4.01D-05 Max=2.85D-04 NDo=     1
 LinEq1:  Iter=  6 NonCon=     1 RMS=5.10D-06 Max=3.94D-05 NDo=     1
 LinEq1:  Iter=  7 NonCon=     1 RMS=7.61D-07 Max=4.92D-06 NDo=     1
 LinEq1:  Iter=  8 NonCon=     1 RMS=5.95D-08 Max=3.17D-07 NDo=     1
 LinEq1:  Iter=  9 NonCon=     1 RMS=3.83D-09 Max=2.82D-08 NDo=     1
 LinEq1:  Iter= 10 NonCon=     1 RMS=3.53D-10 Max=2.15D-09 NDo=     1
 LinEq1:  Iter= 11 NonCon=     0 RMS=4.08D-11 Max=2.60D-10 NDo=     1
 Linear equations converged to 1.000D-10 1.000D-09 after    11 iterations.
 End of Minotr F.D. properties file   721 does not exist.
 End of Minotr F.D. properties file   722 does not exist.
 End of Minotr F.D. properties file   788 does not exist.
 Calling FoFJK, ICntrl=  10005127 FMM=F ISym2X=1 I1Cent= 0 IOpClX= 0 NMat=1 NMatS=1 NMatT=0.
 ***** Axes restored to original set *****
 -------------------------------------------------------------------
 Center     Atomic                   Forces (Hartrees/Bohr)
 Number     Number              X              Y              Z
 -------------------------------------------------------------------
      1        6           0.000112745    0.000195362    0.000000000
      2        1           0.000594265    0.000415572   -0.000000000
      3        1           0.000062501    0.000722457   -0.000000000
      4        8          -0.000769510   -0.001333391   -0.000000000
 -------------------------------------------------------------------
 Cartesian Forces:  Max     0.001333391 RMS     0.000537948

 GradGradGradGradGradGradGradGradGradGradGradGradGradGradGradGradGradGrad
 Berny optimization.
 Using GEDIIS/GDIIS optimizer.
 FormGI is forming the generalized inverse of G from B-inverse, IUseBI=4.
 Internal  Forces:  Max     0.001539506 RMS     0.000741785
 Search for a local minimum.
 Step number   4 out of a maximum of   20
 All quantities printed in internal units (Hartrees-Bohrs-Radians)
 Mixed Optimization -- En-DIIS/RFO-DIIS
 Update second derivatives using D2CorX and points    1    2    3    4
 DE= -5.88D-05 DEPred=-4.55D-05 R= 1.29D+00
 TightC=F SS=  1.41D+00  RLast= 2.57D-02 DXNew= 5.5587D-01 7.7194D-02
 Trust test= 1.29D+00 RLast= 2.57D-02 DXMaxT set to 3.31D-01
 The second derivative matrix:
                          R1        R2        R3        A1        A2
           R1           0.34283
           R2           0.01168   0.34283
           R3           0.05573   0.05573   0.73855
           A1           0.00159   0.00159  -0.06298   0.11745
           A2          -0.00079  -0.00079   0.03149   0.02127   0.14936
           A3          -0.00079  -0.00079   0.03149   0.02127  -0.01064
           D1           0.00000   0.00000   0.00000   0.00000  -0.00000
                          A3        D1
           A3           0.14936
           D1          -0.00000   0.04381
 ITU=  1  1  1  0
 Use linear search instead of GDIIS.
     Eigenvalues ---    0.04381   0.08649   0.16000   0.33116   0.34017
     Eigenvalues ---    0.76258
 RFO step:  Lambda=-6.77125802D-06 EMin= 4.38069898D-02
 Quartic linear search produced a step of  0.36784.
 Iteration  1 RMS(Cart)=  0.00437488 RMS(Int)=  0.00001331
 Iteration  2 RMS(Cart)=  0.00001253 RMS(Int)=  0.00000000
 Iteration  3 RMS(Cart)=  0.00000000 RMS(Int)=  0.00000000
 ClnCor:  largest displacement from symmetrization is 2.54D-11 for atom     1.
 Variable       Old X    -DE/DX   Delta X   Delta X   Delta X     New X
                                 (Linear)    (Quad)   (Total)
    R1        2.05747  -0.00005   0.00133  -0.00141  -0.00009   2.05739
    R2        2.05747  -0.00005   0.00133  -0.00141  -0.00009   2.05739
    R3        2.43276  -0.00154   0.00123  -0.00204  -0.00081   2.43195
    A1        2.11865   0.00099   0.00751   0.00233   0.00984   2.12849
    A2        2.08227  -0.00050  -0.00375  -0.00117  -0.00492   2.07735
    A3        2.08227  -0.00050  -0.00375  -0.00117  -0.00492   2.07735
    D1        3.14159  -0.00000   0.00000  -0.00000   0.00000   3.14159
         Item               Value     Threshold  Converged?
 Maximum Force            0.001540     0.000450     NO 
 RMS     Force            0.000742     0.000300     NO 
 Maximum Displacement     0.006528     0.001800     NO 
 RMS     Displacement     0.004372     0.001200     NO 
 Predicted change in Energy=-7.911008D-06
 GradGradGradGradGradGradGradGradGradGradGradGradGradGradGradGradGradGrad

                          Input orientation:                          
 ---------------------------------------------------------------------
 Center     Atomic      Atomic             Coordinates (Angstroms)
 Number     Number       Type             X           Y           Z
 ---------------------------------------------------------------------
      1          6           0       -0.527530   -0.413331    0.000000
      2          1           0        0.032994   -1.346674    0.000000
      3          1           0       -1.616098   -0.394970   -0.000000
      4          8           0        0.115732    0.701300   -0.000000
 ---------------------------------------------------------------------
                    Distance matrix (angstroms):
                    1          2          3          4
     1  C    0.000000
     2  H    1.088722   0.000000
     3  H    1.088722   1.904007   0.000000
     4  O    1.286931   2.049645   2.049645   0.000000
 Stoichiometry    CH2O
 Framework group  C2V[C2(CO),SGV(H2)]
 Deg. of freedom     3
 Full point group                 C2V     NOp   4
 Largest Abelian subgroup         C2V     NOp   4
 Largest concise Abelian subgroup C2      NOp   2
                         Standard orientation:                         
 ---------------------------------------------------------------------
 Center     Atomic      Atomic             Coordinates (Angstroms)
 Number     Number       Type             X           Y           Z
 ---------------------------------------------------------------------
      1          6           0       -0.000000   -0.000000   -0.577439
      2          1           0       -0.000000   -0.952004   -1.105649
      3          1           0        0.000000    0.952004   -1.105649
      4          8           0        0.000000    0.000000    0.709491
 ---------------------------------------------------------------------
 Rotational constants (GHZ):         276.6463068          35.2011194          31.2276417
 Standard basis: TZVP (5D, 7F)
 There are    27 symmetry adapted cartesian basis functions of A1  symmetry.
 There are     3 symmetry adapted cartesian basis functions of A2  symmetry.
 There are     9 symmetry adapted cartesian basis functions of B1  symmetry.
 There are    13 symmetry adapted cartesian basis functions of B2  symmetry.
 There are    25 symmetry adapted basis functions of A1  symmetry.
 There are     3 symmetry adapted basis functions of A2  symmetry.
 There are     9 symmetry adapted basis functions of B1  symmetry.
 There are    13 symmetry adapted basis functions of B2  symmetry.
    50 basis functions,    86 primitive gaussians,    52 cartesian basis functions
     8 alpha electrons        8 beta electrons
       nuclear repulsion energy        29.9787256630 Hartrees.
 NAtoms=    4 NActive=    4 NUniq=    3 SFac= 1.78D+00 NAtFMM=   60 NAOKFM=F Big=F
 Integral buffers will be    131072 words long.
 Raffenetti 1 integral format.
 Two-electron integral symmetry is turned on.
 One-electron integrals computed using PRISM.
 NBasis=    50 RedAO= T EigKep=  5.49D-03  NBF=    25     3     9    13
 NBsUse=    50 1.00D-06 EigRej= -1.00D+00 NBFU=    25     3     9    13
 Initial guess from the checkpoint file:  "/rds/general/user/rk820/home/dibs-g16/fc_ht/formaldehyde/formaldehyde_es_CAM-B3LYP_freq.chk"
 B after Tr=     0.000000   -0.000000   -0.000000
         Rot=    1.000000   -0.000000    0.000000   -0.000000 Ang=   0.00 deg.
 Initial guess orbital symmetries:
       Occupied  (A1) (A1) (A1) (A1) (B2) (A1) (B1) (B2)
       Virtual   (B1) (A1) (A1) (B2) (A1) (B1) (B2) (A1) (A1) (B2)
                 (A1) (B1) (B2) (A1) (A2) (A1) (B2) (A1) (B1) (B1)
                 (B2) (A1) (B2) (B1) (A1) (A2) (A1) (B2) (A1) (B1)
                 (A1) (B2) (A2) (A1) (A1) (B2) (B1) (A1) (B2) (A1)
                 (A1) (A1)
 Keep R1 ints in memory in symmetry-blocked form, NReq=2575049.
 Requested convergence on RMS density matrix=1.00D-08 within 128 cycles.
 Requested convergence on MAX density matrix=1.00D-06.
 Requested convergence on             energy=1.00D-06.
 No special actions if energy rises.
 SCF Done:  E(RCAM-B3LYP) =  -114.487626072     A.U. after    8 cycles
            NFock=  8  Conv=0.61D-08     -V/T= 2.0058
 DoSCS=F DFT=T ScalE2(SS,OS)=  1.000000  1.000000
 ExpMin= 9.52D-02 ExpMax= 2.70D+04 ExpMxC= 9.22D+02 IAcc=3 IRadAn=         5 AccDes= 0.00D+00
 HarFok:  IExCor=  205 AccDes= 0.00D+00 IRadAn=         5 IDoV=-2 UseB2=F ITyADJ=14
 ICtDFT= 12500011 ScaDFX=  1.000000  1.000000  1.000000  1.000000
 Range of M.O.s used for correlation:     3    50
 NBasis=    50 NAE=     8 NBE=     8 NFC=     2 NFV=     0
 NROrb=     48 NOA=     6 NOB=     6 NVA=    42 NVB=    42
 Keep R1, R2, and R3 ints in memory in symmetry-blocked form, NReq=2619904.
 Orbital symmetries:
       Occupied  (A1) (A1) (A1) (A1) (B2) (A1) (B1) (B2)
       Virtual   (B1) (A1) (A1) (B2) (A1) (B1) (B2) (A1) (A1) (B2)
                 (A1) (B1) (B2) (A1) (A2) (A1) (B2) (A1) (B1) (B1)
                 (B2) (A1) (B2) (B1) (A1) (A2) (A1) (B2) (A1) (B1)
                 (A1) (B2) (A2) (A1) (A1) (B2) (B1) (A1) (B2) (A1)
                 (A1) (A1)
 Generating guess from densities on rwf.
 Convergence on wavefunction:    0.000001000000000
 Iteration     1 Dimension     4 NMult     0 NNew      4
 CISAX will form     4 AO SS matrices at one time.
 Iteration     2 Dimension     8 NMult     4 NNew      4
 Iteration     3 Dimension    12 NMult     8 NNew      4
 Iteration     4 Dimension    16 NMult    12 NNew      4
 Iteration     5 Dimension    20 NMult    16 NNew      4
 Iteration     6 Dimension    22 NMult    20 NNew      2
 Iteration     7 Dimension    24 NMult    22 NNew      2
 Iteration     8 Dimension    26 NMult    24 NNew      2
 ***********************************************************************
 Excited states from <AA,BB:AA,BB> singles matrix:
 ***********************************************************************
 
 Ground to excited state transition densities written to RWF  633
 Ground to excited state transition electric dipole moments (Au):
       state          X           Y           Z        Dip. S.      Osc.
         1         0.0000     -0.0000     -0.0000      0.0000      0.0000
         2        -0.0000     -0.4700      0.0000      0.2209      0.0454
 Ground to excited state transition velocity dipole moments (Au):
       state          X           Y           Z        Dip. S.      Osc.
         1        -0.0000      0.0000     -0.0000      0.0000      0.0000
         2         0.0000      0.1308      0.0000      0.0171      0.0370
 Ground to excited state transition magnetic dipole moments (Au):
       state          X           Y           Z
         1        -0.0000      0.0000      1.1889
         2         0.9911     -0.0000     -0.0000
 Ground to excited state transition velocity quadrupole moments (Au):
       state          XX          YY          ZZ          XY          XZ          YZ
         1        -0.0000      0.0000      0.0000     -0.0797      0.0000     -0.0000
         2        -0.0000      0.0000     -0.0000      0.0000     -0.0000     -0.6329
 <0|del|b> * <b|rxdel|0> + <0|del|b> * <b|delr+rdel|0>
 Rotatory Strengths (R) in cgs (10**-40 erg-esu-cm/Gauss)
       state          XX          YY          ZZ    R(velocity)    E-M Angle
         1        -0.0000     -0.0000      0.0000     -0.0000       90.00
         2        -0.0000      0.0000      0.0000      0.0000       90.00
 1/2[<0|r|b>*<b|rxdel|0> + (<0|rxdel|b>*<b|r|0>)*]
 Rotatory Strengths (R) in cgs (10**-40 erg-esu-cm/Gauss)
       state          XX          YY          ZZ     R(length)
         1         0.0000      0.0000      0.0000      0.0000
         2         0.0000     -0.0000      0.0000      0.0000
  1/2[<0|del|b>*<b|r|0> + (<0|r|b>*<b|del|0>)*] (Au)
       state          X           Y           Z        Dip. S.   Osc.(frdel)
         1        -0.0000     -0.0000      0.0000      0.0000      0.0000
         2        -0.0000     -0.0615      0.0000      0.0615      0.0410

 Excitation energies and oscillator strengths:
 
 Excited State   1:      Singlet-A2     3.4478 eV  359.60 nm  f=0.0000  <S**2>=0.000
       8 ->  9         0.70544
 This state for optimization and/or second-order correction.
 Total Energy, E(TD-HF/TD-DFT) =  -114.360921161    
 Copying the excited state density for this state as the 1-particle RhoCI density.
 
 Excited State   2:      Singlet-B2     8.3869 eV  147.83 nm  f=0.0454  <S**2>=0.000
       8 -> 10         0.68329
       8 -> 11         0.17508
 SavETr:  write IOETrn=   770 NScale= 10 NData=  16 NLR=1 NState=    2 LETran=      46.
          IDoAtm=1111
          Differentiating once with respect to electric field.
                with respect to dipole field.
          Differentiating once with respect to nuclear coordinates.
 Keep R1 ints in memory in symmetry-blocked form, NReq=2577698.
          There are     1 degrees of freedom in the 1st order CPHF.  IDoFFX=0 NUNeed=     1.
 LinEq1:  Iter=  0 NonCon=     1 RMS=6.16D-02 Max=9.24D-01 NDo=     1
 AX will form     1 AO Fock derivatives at one time.
 LinEq1:  Iter=  1 NonCon=     1 RMS=1.20D-02 Max=5.95D-02 NDo=     1
 LinEq1:  Iter=  2 NonCon=     1 RMS=4.67D-03 Max=4.06D-02 NDo=     1
 LinEq1:  Iter=  3 NonCon=     1 RMS=1.47D-03 Max=1.01D-02 NDo=     1
 LinEq1:  Iter=  4 NonCon=     1 RMS=2.95D-04 Max=2.46D-03 NDo=     1
 LinEq1:  Iter=  5 NonCon=     1 RMS=4.01D-05 Max=2.84D-04 NDo=     1
 LinEq1:  Iter=  6 NonCon=     1 RMS=5.12D-06 Max=3.96D-05 NDo=     1
 LinEq1:  Iter=  7 NonCon=     1 RMS=7.59D-07 Max=4.89D-06 NDo=     1
 LinEq1:  Iter=  8 NonCon=     1 RMS=5.91D-08 Max=3.16D-07 NDo=     1
 LinEq1:  Iter=  9 NonCon=     1 RMS=3.77D-09 Max=2.80D-08 NDo=     1
 LinEq1:  Iter= 10 NonCon=     1 RMS=3.40D-10 Max=2.05D-09 NDo=     1
 LinEq1:  Iter= 11 NonCon=     0 RMS=3.95D-11 Max=2.50D-10 NDo=     1
 Linear equations converged to 1.000D-10 1.000D-09 after    11 iterations.
 End of Minotr F.D. properties file   721 does not exist.
 End of Minotr F.D. properties file   722 does not exist.
 End of Minotr F.D. properties file   788 does not exist.
 Calling FoFJK, ICntrl=  10005127 FMM=F ISym2X=1 I1Cent= 0 IOpClX= 0 NMat=1 NMatS=1 NMatT=0.
 ***** Axes restored to original set *****
 -------------------------------------------------------------------
 Center     Atomic                   Forces (Hartrees/Bohr)
 Number     Number              X              Y              Z
 -------------------------------------------------------------------
      1        6           0.000195548    0.000338842   -0.000000000
      2        1           0.000007631    0.000098753    0.000000000
      3        1           0.000081686    0.000056015    0.000000000
      4        8          -0.000284866   -0.000493610    0.000000000
 -------------------------------------------------------------------
 Cartesian Forces:  Max     0.000493610 RMS     0.000203608

 GradGradGradGradGradGradGradGradGradGradGradGradGradGradGradGradGradGrad
 Berny optimization.
 Using GEDIIS/GDIIS optimizer.
 FormGI is forming the generalized inverse of G from B-inverse, IUseBI=4.
 Internal  Forces:  Max     0.000569912 RMS     0.000222687
 Search for a local minimum.
[...]
                 (A1) (B1) (B2) (A1) (A2) (A1) (B2) (A1) (B1) (B1)
                 (B2) (A1) (B2) (B1) (A1) (A2) (A1) (B2) (A1) (B1)
                 (A1) (B2) (A2) (A1) (A1) (B2) (B1) (A1) (B2) (A1)
                 (A1) (A1)
 The electronic state is 1-A1.
 Alpha  occ. eigenvalues --  -19.22370 -10.35934  -1.10895  -0.73029  -0.57676
 Alpha  occ. eigenvalues --   -0.51351  -0.44949  -0.34662
 Alpha virt. eigenvalues --   -0.02403   0.09408   0.14509   0.14711   0.23301
 Alpha virt. eigenvalues --    0.25120   0.31099   0.44566   0.47913   0.50729
 Alpha virt. eigenvalues --    0.51604   0.55770   0.65927   0.77555   1.21168
 Alpha virt. eigenvalues --    1.28701   1.31758   1.32367   1.38453   1.52228
 Alpha virt. eigenvalues --    1.67228   1.77481   1.81489   1.98147   2.12241
 Alpha virt. eigenvalues --    2.20384   2.24676   2.50890   2.54682   2.66420
 Alpha virt. eigenvalues --    2.70647   2.74100   2.74892   2.77502   3.00924
 Alpha virt. eigenvalues --    3.04730   3.14135   3.24204   3.44680   4.09548
 Alpha virt. eigenvalues --   21.83262  43.30983
          Condensed to atoms (all electrons):
               1          2          3          4
     1  C    5.254040   0.384979   0.384979   0.196069
     2  H    0.384979   0.511071  -0.035142  -0.030142
     3  H    0.384979  -0.035142   0.511071  -0.030142
     4  O    0.196069  -0.030142  -0.030142   7.982615
 Mulliken charges:
               1
     1  C   -0.220068
     2  H    0.169234
     3  H    0.169234
     4  O   -0.118399
 Sum of Mulliken charges =   0.00000
 Mulliken charges with hydrogens summed into heavy atoms:
               1
     1  C    0.118399
     4  O   -0.118399
 APT charges:
               1
     1  C   -0.131229
     2  H    0.171472
     3  H    0.171472
     4  O   -0.211715
 Sum of APT charges =  -0.00000
 APT charges with hydrogens summed into heavy atoms:
               1
     1  C    0.211715
     4  O   -0.211715
 Electronic spatial extent (au):  <R**2>=             63.6711
 Charge=             -0.0000 electrons
 Dipole moment (field-independent basis, Debye):
    X=              0.0000    Y=             -0.0000    Z=             -1.6656  Tot=              1.6656
 Quadrupole moment (field-independent basis, Debye-Ang):
   XX=            -13.9021   YY=            -10.1932   ZZ=            -12.1725
   XY=             -0.0000   XZ=             -0.0000   YZ=              0.0000
 Traceless Quadrupole moment (field-independent basis, Debye-Ang):
   XX=             -1.8128   YY=              1.8961   ZZ=             -0.0832
   XY=             -0.0000   XZ=             -0.0000   YZ=              0.0000
 Octapole moment (field-independent basis, Debye-Ang**2):
  XXX=             -0.0000  YYY=              0.0000  ZZZ=              0.7984  XYY=              0.0000
  XXY=              0.0000  XXZ=              1.9785  XZZ=              0.0000  YZZ=             -0.0000
  YYZ=             -0.5659  XYZ=              0.0000
 Hexadecapole moment (field-independent basis, Debye-Ang**3):
 XXXX=            -16.0082 YYYY=            -16.0429 ZZZZ=            -48.4355 XXXY=             -0.0000
 XXXZ=              0.0000 YYYX=             -0.0000 YYYZ=             -0.0000 ZZZX=              0.0000
 ZZZY=             -0.0000 XXYY=             -5.8298 XXZZ=            -12.2033 YYZZ=             -8.7744
 XXYZ=             -0.0000 YYXZ=             -0.0000 ZZXY=             -0.0000
 N-N= 2.998733899992D+01 E-N=-3.286647804829D+02  KE= 1.139592860423D+02
 Symmetry A1   KE= 1.034792934277D+02
 Symmetry A2   KE= 3.145019239681D-04
 Symmetry B1   KE= 5.858732179898D+00
 Symmetry B2   KE= 4.620945932815D+00
  Exact polarizability:      12.824       0.000      13.037       0.000      -0.000      20.196
 Approx polarizability:      10.035       0.000      13.699      -0.000       0.000      28.684
 Density matrix is not symmetric, so symmetry will not be used here.
 Calling FoFJK, ICntrl=  10105127 FMM=F ISym2X=1 I1Cent= 0 IOpClX= 0 NMat=1 NMatS=1 NMatT=0.
 Density matrix is not symmetric, so symmetry will not be used here.
 Calling FoFJK, ICntrl=  10002127 FMM=F ISym2X=0 I1Cent= 0 IOpClX= 0 NMat=1 NMatS=1 NMatT=0.
 Full mass-weighted force constant matrix:
 Low frequencies --- -387.2007   -0.0011   -0.0010   -0.0004    8.8283    9.1259
 Low frequencies ---   16.3323  892.1949 1317.6003
 ******    1 imaginary frequencies (negative Signs) ****** 
 Diagonal vibrational polarizability:
       28.8286507       0.0706877       0.7185108
 Harmonic frequencies (cm**-1), IR intensities (KM/Mole), Raman scattering
 activities (A**4/AMU), depolarization ratios for plane and unpolarized
 incident light, reduced masses (AMU), force constants (mDyne/A),
 and normal coordinates:
                      1                      2                      3
                     B1                     B2                     A1
 Frequencies --   -387.2007               892.1949              1317.6003
 Red. masses --      1.3269                 1.3070                 1.1413
 Frc consts  --      0.1172                 0.6130                 1.1674
 IR Inten    --    160.6066                 1.4923                41.8745
  Atom  AN      X      Y      Z        X      Y      Z        X      Y      Z
     1   6    -0.17  -0.00   0.00    -0.00   0.14   0.00    -0.00   0.00   0.02
     2   1     0.70   0.00  -0.00     0.00  -0.25   0.65     0.00  -0.32   0.62
     3   1     0.70  -0.00  -0.00     0.00  -0.25  -0.65     0.00   0.32   0.62
     4   8     0.04   0.00   0.00     0.00  -0.07   0.00     0.00  -0.00  -0.09
                      4                      5                      6
                     A1                     A1                     B2
 Frequencies --   1427.6139              3069.2259              3178.5923
 Red. masses --      6.2885                 1.0397                 1.1148
 Frc consts  --      7.5513                 5.7706                 6.6362
 IR Inten    --      0.2677                23.0578                 7.5975
  Atom  AN      X      Y      Z        X      Y      Z        X      Y      Z
     1   6     0.00   0.00   0.54    -0.00   0.00  -0.05    -0.00  -0.10  -0.00
     2   1    -0.00   0.44  -0.31     0.00   0.62   0.33     0.00   0.60   0.36
     3   1    -0.00  -0.44  -0.31     0.00  -0.62   0.33     0.00   0.60  -0.36
     4   8    -0.00   0.00  -0.37     0.00  -0.00  -0.00     0.00  -0.00  -0.00

 -------------------
 - Thermochemistry -
 -------------------
 Temperature   298.150 Kelvin.  Pressure   1.00000 Atm.
 Atom     1 has atomic number  6 and mass  12.00000
 Atom     2 has atomic number  1 and mass   1.00783
 Atom     3 has atomic number  1 and mass   1.00783
 Atom     4 has atomic number  8 and mass  15.99491
 Molecular mass:    30.01056 amu.
 Principal axes and moments of inertia in atomic units:
                           1         2         3
     Eigenvalues --     6.52492  51.23105  57.75597
           X           -0.00000   0.00000   1.00000
           Y            0.00000   1.00000  -0.00000
           Z            1.00000  -0.00000   0.00000
 This molecule is an asymmetric top.
 Rotational symmetry number  2.
 Rotational temperatures (Kelvin)     13.27433     1.69065     1.49965
 Rotational constants (GHZ):         276.59208    35.22749    31.24770
    1 imaginary frequencies ignored.
 Zero-point vibrational energy      59126.8 (Joules/Mol)
                                   14.13164 (Kcal/Mol)
 Vibrational temperatures:   1283.67  1895.73  2054.02  4415.93  4573.29
          (Kelvin)
 
 Zero-point correction=                           0.022520 (Hartree/Particle)
 Thermal correction to Energy=                    0.025425
 Thermal correction to Enthalpy=                  0.026370
 Thermal correction to Gibbs Free Energy=         0.001403
 Sum of electronic and zero-point Energies=           -114.338401
 Sum of electronic and thermal Energies=              -114.335496
 Sum of electronic and thermal Enthalpies=            -114.334552
 Sum of electronic and thermal Free Energies=         -114.359518
 
                     E (Thermal)             CV                S
                      KCal/Mol        Cal/Mol-Kelvin    Cal/Mol-Kelvin
 Total                   15.955              6.709             52.546
 Electronic               0.000              0.000              0.000
 Translational            0.889              2.981             36.130
 Rotational               0.889              2.981             16.231
 Vibrational             14.177              0.747              0.185
                       Q            Log10(Q)             Ln(Q)
 Total Bot       0.226237D+00         -0.645436         -1.486172
 Total V=0       0.516571D+10          9.713130         22.365308
 Vib (Bot)       0.445175D-10        -10.351470        -23.835140
 Vib (V=0)       0.101647D+01          0.007097          0.016340
 Electronic      0.100000D+01          0.000000          0.000000
 Translational   0.646197D+07          6.810365         15.681445
 Rotational      0.786445D+03          2.895668          6.667523
 ***** Axes restored to original set *****
 -------------------------------------------------------------------
 Center     Atomic                   Forces (Hartrees/Bohr)
 Number     Number              X              Y              Z
 -------------------------------------------------------------------
      1        6           0.000022894    0.000039671   -0.000000000
      2        1          -0.000010822    0.000013113   -0.000000000
      3        1           0.000016768   -0.000002809    0.000000000
      4        8          -0.000028841   -0.000049974   -0.000000000
 -------------------------------------------------------------------
 Cartesian Forces:  Max     0.000049974 RMS     0.000022370
 -------------------------------------------------------------------
 Center     Atomic                Nonadiabatic Coup. (Bohr^-1)
 Number     Number              X              Y              Z
 -------------------------------------------------------------------
      1        6           0.000000000   -0.000000000    0.000000000
      2        1          -0.000000000    0.000000000    0.330455572
      3        1          -0.000000000   -0.000000000   -0.330455572
      4        8           0.000000000   -0.000000000   -0.000000000
 -------------------------------------------------------------------
 Cartesian Nonad. Coup.:  Max     0.330455572 RMS     0.134907922
 FormGI is forming the generalized inverse of G from B-inverse, IUseBI=4.

 GradGradGradGradGradGradGradGradGradGradGradGradGradGradGradGradGradGrad
 Berny optimization.
 Internal  Forces:  Max     0.000057699 RMS     0.000023642
 Search for a local minimum.
 Step number   1 out of a maximum of    2
 All quantities printed in internal units (Hartrees-Bohrs-Radians)
 Second derivative matrix not updated -- analytic derivatives used.
 The second derivative matrix:
                          R1        R2        R3        A1        A2
           R1           0.34681
           R2           0.00172   0.34681
           R3           0.02392   0.02392   0.55413
           A1           0.00507   0.00507  -0.03511   0.05995
           A2           0.01123  -0.01630   0.01755  -0.02998   0.06302
           A3          -0.01630   0.01123   0.01755  -0.02998  -0.03305
           D1           0.00000   0.00000   0.00000  -0.00000   0.00000
                          A3        D1
           A3           0.06302
           D1           0.00000  -0.00684
 ITU=  0
     Eigenvalues ---   -0.00684   0.08544   0.09306   0.34402   0.34810
     Eigenvalues ---    0.56313
 Eigenvalue     1 is  -6.84D-03 should be greater than     0.000000 Eigenvector:
                          D1        R3        A2        A1        R2
   1                    1.00000  -0.00000  -0.00000   0.00000  -0.00000
                          R1        A3
   1                   -0.00000   0.00000
 Angle between quadratic step and forces=  33.96 degrees.
 Linear search not attempted -- first point.
 Iteration  1 RMS(Cart)=  0.00004825 RMS(Int)=  0.00000000
 Iteration  2 RMS(Cart)=  0.00000000 RMS(Int)=  0.00000000
 Variable       Old X    -DE/DX   Delta X   Delta X   Delta X     New X
                                 (Linear)    (Quad)   (Total)
    R1        2.05725  -0.00002   0.00000  -0.00004  -0.00004   2.05721
    R2        2.05725  -0.00002   0.00000  -0.00004  -0.00004   2.05721
    R3        2.43109  -0.00006   0.00000  -0.00011  -0.00011   2.43098
    A1        2.12908  -0.00000   0.00000  -0.00008  -0.00008   2.12901
    A2        2.07705   0.00000   0.00000   0.00004   0.00004   2.07709
    A3        2.07705   0.00000   0.00000   0.00004   0.00004   2.07709
    D1        3.14159   0.00000   0.00000   0.00000   0.00000   3.14159
         Item               Value     Threshold  Converged?
 Maximum Force            0.000058     0.000450     YES
 RMS     Force            0.000024     0.000300     YES
 Maximum Displacement     0.000064     0.001800     YES
 RMS     Displacement     0.000048     0.001200     YES
 Predicted change in Energy=-3.971547D-09
 Optimization completed.
    -- Stationary point found.
                           ----------------------------
                           !   Optimized Parameters   !
                           ! (Angstroms and Degrees)  !
 --------------------------                            --------------------------
 ! Name  Definition              Value          Derivative Info.                !
 --------------------------------------------------------------------------------
 ! R1    R(1,2)                  1.0886         -DE/DX =    0.0                 !
 ! R2    R(1,3)                  1.0886         -DE/DX =    0.0                 !
 ! R3    R(1,4)                  1.2865         -DE/DX =   -0.0001              !
 ! A1    A(2,1,3)              121.9876         -DE/DX =    0.0                 !
 ! A2    A(2,1,4)              119.0062         -DE/DX =    0.0                 !
 ! A3    A(3,1,4)              119.0062         -DE/DX =    0.0                 !
 ! D1    D(2,1,4,3)            180.0            -DE/DX =    0.0                 !
 --------------------------------------------------------------------------------
 GradGradGradGradGradGradGradGradGradGradGradGradGradGradGradGradGradGrad

 -------------------------------------------------------------------
 Center     Atomic                Nonadiabatic Coup. (Bohr^-1)
 Number     Number              X              Y              Z
 -------------------------------------------------------------------
      1        6           0.000000000   -0.000000000    0.000000000
      2        1          -0.000000000    0.000000000    0.330455572
      3        1          -0.000000000   -0.000000000   -0.330455572
      4        8           0.000000000   -0.000000000   -0.000000000
 -------------------------------------------------------------------
 Cartesian Nonad. Coup.:  Max     0.330455572 RMS     0.134907922

 ----------------------------------------------------------------------

 Electric dipole moment (input orientation):
 (Debye = 10**-18 statcoulomb cm , SI units = C m)
                  (au)            (Debye)         (10**-30 SI)
   Tot        0.655310D+00      0.166563D+01      0.555595D+01
   x         -0.327552D+00     -0.832554D+00     -0.277710D+01
   y         -0.567575D+00     -0.144263D+01     -0.481210D+01
   z          0.000000D+00      0.000000D+00      0.000000D+00

 Dipole polarizability, Alpha (input orientation).
 (esu units = cm**3 , SI units = C**2 m**2 J**-1)
 Alpha(0;0):
               (au)            (10**-24 esu)      (10**-40 SI)
   iso        0.153520D+02      0.227493D+01      0.253120D+01
   aniso      0.726770D+01      0.107696D+01      0.119828D+01
   xx         0.148253D+02      0.219688D+01      0.244436D+01
   yx         0.309922D+01      0.459257D+00      0.510993D+00
   yy         0.184070D+02      0.272763D+01      0.303490D+01
   zx         0.000000D+00      0.000000D+00      0.000000D+00
   zy         0.000000D+00      0.000000D+00      0.000000D+00
   zz         0.128237D+02      0.190028D+01      0.211434D+01

 ----------------------------------------------------------------------

 Dipole orientation:
     6         -0.40967521          0.23642673          1.17488249
     1          1.14864344         -0.66289100          2.17245197
     1         -1.96799385          1.13574445          2.17245197
     8         -0.40967521          0.23642673         -1.25620673

 Electric dipole moment (dipole orientation):
 (Debye = 10**-18 statcoulomb cm , SI units = C m)
                  (au)            (Debye)         (10**-30 SI)
   Tot        0.655310D+00      0.166563D+01      0.555595D+01
   x          0.000000D+00      0.000000D+00      0.000000D+00
   y          0.000000D+00      0.000000D+00      0.000000D+00
   z          0.655310D+00      0.166563D+01      0.555595D+01

 Dipole polarizability, Alpha (dipole orientation).
 (esu units = cm**3 , SI units = C**2 m**2 J**-1)
 Alpha(0;0):
               (au)            (10**-24 esu)      (10**-40 SI)
   iso        0.153520D+02      0.227493D+01      0.253120D+01
   aniso      0.726770D+01      0.107696D+01      0.119828D+01
   xx         0.129835D+02      0.192395D+01      0.214069D+01
   yx        -0.922206D-01     -0.136657D-01     -0.152051D-01
   yy         0.128769D+02      0.190816D+01      0.212312D+01
   zx         0.000000D+00      0.000000D+00      0.000000D+00
   zy         0.000000D+00      0.000000D+00      0.000000D+00
   zz         0.201956D+02      0.299267D+01      0.332980D+01

 ----------------------------------------------------------------------
 Unable to Open any file for archive entry.
 1\1\GINC-CX3-7-2\Freq\RCAM-B3LYP TD-FC\TZVP\C1H2O1\RK820\22-Feb-2024\0
 \\#N Geom=AllCheck Guess=TCheck SCRF=Check GenChk RCAM-B3LYP TD(FC,Rea
 d)/TZVP Freq\\CAM-B3LYP, TD-DFT for formaldehyde, calculating the firs
 t two excited states and optimizing its geometry, followed by a vibrat
 ional analysis.\\0,1\C,-0.5275533412,-0.4133711226,0.\H,0.03321103,-1.
 3464846295,0.\H,-1.6160423985,-0.3946877415,0.\O,0.1154824617,0.700867
 6566,0.\\Version=ES64L-G16RevC.01\State=1-A1\HF=-114.4877144\RMSD=2.85
 8e-10\RMSF=2.237e-05\ZeroPoint=0.0225202\Thermal=0.0254254\ETot=-114.3
 354961\HTot=-114.3345519\GTot=-114.3595183\Dipole=-0.3275519,-0.567574
 9,0.\DipoleDeriv=0.0920445,-0.0590718,0.,-0.0590718,0.0237769,0.,0.,0.
 ,-0.5095092,0.0645971,0.0267458,0.,0.0289518,0.1736291,0.,0.,0.,0.2761
 904,0.1222088,0.0622419,0.,0.0600359,0.1160174,0.,0.,0.,0.2761904,-0.2
 788505,-0.0299159,0.,-0.0299159,-0.3134234,0.,0.,0.,-0.0428717\Polar=1
 4.8252957,3.0992216,18.4069764,0.,0.,12.8236918\Quadrupole=1.0420167,0
 .3057767,-1.3477934,-0.6370671,0.,0.\PG=C02V [C2(C1O1),SGV(H2)]\NImag=
 1\\0.57627293,0.05240628,0.63683734,0.,0.,-0.01677596,-0.11613515,0.12
 316606,0.,0.12113262,0.13632940,-0.23166586,0.,-0.13262514,0.26890820,
 0.,0.,0.00595280,0.,0.,-0.00210378,-0.31515878,0.02132648,0.,-0.009395
 78,-0.00384598,0.,0.34682270,0.00816313,-0.03264222,0.,0.02310624,0.00
 173348,0.,-0.00221340,0.04321812,0.,0.,0.00595280,0.,0.,-0.00211395,0.
 ,0.,-0.00210377,-0.14497900,-0.19689882,0.,0.00439830,0.00014172,0.,-0
 .02226814,-0.02905597,0.,0.16284884,-0.19689882,-0.37252926,0.,-0.0136
 4716,-0.03897582,0.,-0.01526709,-0.01230938,0.,0.22581306,0.42381446,0
 .,0.,0.00487036,0.,0.,-0.00173508,0.,0.,-0.00173507,0.,0.,-0.00140021\
 \-0.00002289,-0.00003967,0.,0.00001082,-0.00001311,0.,-0.00001677,0.00
 000281,0.,0.00002884,0.00004997,0.\\\@
 The archive entry for this job was punched.


 AN OPTIMIST IS A GUY
 THAT HAS NEVER HAD
 MUCH EXPERIENCE
   (CERTAIN MAXIMS OF ARCHY  -- DON MARQUIS)
 Job cpu time:       0 days  0 hours  0 minutes 24.5 seconds.
 Elapsed time:       0 days  0 hours  0 minutes 25.7 seconds.
 File lengths (MBytes):  RWF=     41 Int=      0 D2E=      0 Chk=     16 Scr=      1
 Normal termination of Gaussian 16 at Thu Feb 22 10:43:48 2024.
