HF/STO-3G for formaldehyde, calculating the first two excited states and
FOpt      RCAM-B3LYP TD-FC                                            TZVP                
Number of atoms                            I                4
Info1-9                                    I   N=           9
           9           9        1000           0           0         100
           2         218        4001
Full Title                                 C   N=          12
HF/STO-3G for formaldehyde, calculating the first two excite
d states and optimizing its geometry, followed by a vibratio
nal analysis.           
Route                                      C   N=           6
#p CAM-B3LYP/TZVP TD=(nstates=2) geom=check Density=Current 
opt freq    
Charge                                     I                0
Multiplicity                               I                1
Number of electrons                        I               16
Number of alpha electrons                  I                8
Number of beta electrons                   I                8
Number of basis functions                  I               50
Number of independent functions            I               50
Number of point charges in /Mol/           I                0
Number of translation vectors              I                0
Atomic numbers                             I   N=           4
           6           1           1           8
Nuclear charges                            R   N=           4
  6.00000000E+00  1.00000000E+00  1.00000000E+00  8.00000000E+00
Current cartesian coordinates              R   N=          12
  9.86076132E-32 -1.01833482E-16 -1.09049716E+00 -7.88860905E-31 -1.79416955E+00
 -2.09755090E+00  2.19722399E-16  1.79416955E+00 -2.09755090E+00 -4.93038066E-32
  7.90590097E-17  1.34226060E+00
Number of symbols in /Mol/                 I                0
Int Atom Types                             I   N=           4
           0           0           0           0
Force Field                                I                0
Atom Types                                 C   N=           4
                                                
MM charges                                 R   N=           4
  0.00000000E+00  0.00000000E+00  0.00000000E+00  0.00000000E+00
Integer atomic weights                     I   N=           4
          12           1           1          16
Real atomic weights                        R   N=           4
  1.20000000E+01  1.00782504E+00  1.00782504E+00  1.59949146E+01
Atom fragment info                         I   N=           4
           0           0           0           0
Atom residue num                           I   N=           4
           0           0           0           0
Nuclear spins                              I   N=           4
           0           1           1           0
Nuclear ZEff                               R   N=           4
 -3.60000000E+00 -1.00000000E+00 -1.00000000E+00 -5.60000000E+00
Nuclear ZNuc                               R   N=           4
  6.00000000E+00  1.00000000E+00  1.00000000E+00  8.00000000E+00
Nuclear QMom                               R   N=           4
  0.00000000E+00  0.00000000E+00  0.00000000E+00  0.00000000E+00
Nuclear GFac                               R   N=           4
  0.00000000E+00  2.79284600E+00  2.79284600E+00  0.00000000E+00
MicOpt                                     I   N=           4
          -1          -1          -1          -1
Number of residues                         I                0
Number of secondary structures             I                0
Redundant internal dimensions              I   N=           4
           7           3           3           1
Redundant internal coordinate indices      I   N=          28
           1           2           0           0           1           3
           0           0           1           4           0           0
           2           1           3           0           2           1
           4           0           3           1           4           0
           2           1           4           3
Redundant internal coordinates             R   N=           7
  2.05747457E+00  2.05747457E+00  2.43275776E+00  2.11864937E+00  2.08226797E+00
  2.08226797E+00  3.14159265E+00
ZRed-IntVec                                I   N=           7
           0           0           0           0           0           0
           0
ZRed-FPVec                                 R   N=           7
  0.00000000E+00  0.00000000E+00  0.00000000E+00  0.00000000E+00  0.00000000E+00
  0.00000000E+00  0.00000000E+00
ZRed-Constraint1                           R   N=           7
  2.08848628E+00  2.08848628E+00  2.26148535E+00  2.02872012E+00  2.12723259E+00
  2.12723259E+00  3.14159265E+00
ZRed-Constraint2                           R   N=           7
  2.08848628E+00  2.08848628E+00  2.26148535E+00  2.02872012E+00  2.12723259E+00
  2.12723259E+00  3.14159265E+00
SymInf integers                            I   N=          26
           2           4           1           1           1          -1
          -1           1          -1           1           1           1
          -1           1           0           0           0           0
           0           0           0           0           0           0
           0           0
RotTr to input orientation                 R   N=          12
  9.85074069E-16 -7.80586625E-16 -1.00000000E+00 -8.66116354E-01  4.99842436E-01
 -1.24335908E-15  4.99842436E-01  8.66116354E-01 -1.83697020E-16 -4.49692760E-01
  1.67085161E-01 -1.27127956E-16
Number of contracted shells                I               26
Number of primitive shells                 I               48
Pure/Cartesian d shells                    I                0
Pure/Cartesian f shells                    I                0
Highest angular momentum                   I                2
Largest degree of contraction              I                6
Shell types                                I   N=          26
           0           0           0           0           0           1
           1           1          -2           0           0           0
           1           0           0           0           1           0
           0           0           0           0           1           1
           1          -2
Number of primitives per shell             I   N=          26
           6           2           1           1           1           4
           1           1           1           3           1           1
           1           3           1           1           1           6
           2           1           1           1           4           1
           1           1
Shell to atom map                          I   N=          26
           1           1           1           1           1           1
           1           1           1           2           2           2
           2           3           3           3           3           4
           4           4           4           4           4           4
           4           4
Primitive exponents                        R   N=          48
  1.35753497E+04  2.03523337E+03  4.63225624E+02  1.31200196E+02  4.28530159E+01
  1.55841858E+01  6.20671385E+00  2.57648965E+00  5.76963390E-01  2.29728310E-01
  9.51644400E-02  3.46972322E+01  7.95826228E+00  2.37808269E+00  8.14332080E-01
  2.88875470E-01  1.00568240E-01  8.00000000E-01  3.40613410E+01  5.12357460E+00
  1.16466260E+00  3.27230410E-01  1.03072410E-01  8.00000000E-01  3.40613410E+01
  5.12357460E+00  1.16466260E+00  3.27230410E-01  1.03072410E-01  8.00000000E-01
  2.70323826E+04  4.05238714E+03  9.22327227E+02  2.61240710E+02  8.53546413E+01
  3.10350352E+01  1.22608607E+01  4.99870760E+00  1.17031082E+00  4.64747410E-01
  1.85045360E-01  6.32749548E+01  1.46270494E+01  4.45012235E+00  1.52757996E+00
  5.29351180E-01  1.74784210E-01  1.20000000E+00
Contraction coefficients                   R   N=          48
  6.06460097E-04  4.69789846E-03  2.43324735E-02  9.73999560E-02  3.01955844E-01
  6.62336101E-01  6.55953080E-01  3.75856339E-01  1.00000000E+00  1.00000000E+00
  1.00000000E+00  1.13272290E-02  7.61696612E-02  3.01922515E-01  7.27850278E-01
  1.00000000E+00  1.00000000E+00  1.00000000E+00  2.54393072E-02  1.90085949E-01
  8.52441130E-01  1.00000000E+00  1.00000000E+00  1.00000000E+00  2.54393072E-02
  1.90085949E-01  8.52441130E-01  1.00000000E+00  1.00000000E+00  1.00000000E+00
  5.72265385E-04  4.43533331E-03  2.30201034E-02  9.28224938E-02  2.93784997E-01
  6.74016046E-01  6.38399375E-01  3.95345866E-01  1.00000000E+00  1.00000000E+00
  1.00000000E+00  1.20183316E-02  8.30054304E-02  3.19917439E-01  7.07155426E-01
  1.00000000E+00  1.00000000E+00  1.00000000E+00
Coordinates of each shell                  R   N=          78
  9.86076132E-32 -1.01833482E-16 -1.09049716E+00  9.86076132E-32 -1.01833482E-16
 -1.09049716E+00  9.86076132E-32 -1.01833482E-16 -1.09049716E+00  9.86076132E-32
 -1.01833482E-16 -1.09049716E+00  9.86076132E-32 -1.01833482E-16 -1.09049716E+00
  9.86076132E-32 -1.01833482E-16 -1.09049716E+00  9.86076132E-32 -1.01833482E-16
 -1.09049716E+00  9.86076132E-32 -1.01833482E-16 -1.09049716E+00  9.86076132E-32
 -1.01833482E-16 -1.09049716E+00 -7.88860905E-31 -1.79416955E+00 -2.09755090E+00
 -7.88860905E-31 -1.79416955E+00 -2.09755090E+00 -7.88860905E-31 -1.79416955E+00
 -2.09755090E+00 -7.88860905E-31 -1.79416955E+00 -2.09755090E+00  2.19722399E-16
  1.79416955E+00 -2.09755090E+00  2.19722399E-16  1.79416955E+00 -2.09755090E+00
  2.19722399E-16  1.79416955E+00 -2.09755090E+00  2.19722399E-16  1.79416955E+00
 -2.09755090E+00 -4.93038066E-32  7.90590097E-17  1.34226060E+00 -4.93038066E-32
  7.90590097E-17  1.34226060E+00 -4.93038066E-32  7.90590097E-17  1.34226060E+00
 -4.93038066E-32  7.90590097E-17  1.34226060E+00 -4.93038066E-32  7.90590097E-17
  1.34226060E+00 -4.93038066E-32  7.90590097E-17  1.34226060E+00 -4.93038066E-32
  7.90590097E-17  1.34226060E+00 -4.93038066E-32  7.90590097E-17  1.34226060E+00
 -4.93038066E-32  7.90590097E-17  1.34226060E+00
Num ILSW                                   I              100
ILSW                                       I   N=         100
           0           0           0           1           2           0
           0           0           0           0       20419          -1
           5           0           0           0           0           0
           0           0           0           0           1           0
           1           0           0           0           0           0
           0           0      100000           0          -1           0
           0           0           0           0           0           0
           0           0           0           1           0           0
           0           1           1           0           0           0
           0           0           4          52           0           0
           0           0          40           0           0           0
           0           0           0           4           0           1
           0           0           0           0           0           0
           0           0           0           0           0           0
           0           0           0           0           0           0
           0           0           0           0           0           0
           0           0           0           0
Num RLSW                                   I               52
RLSW                                       R   N=          52
  1.00000000E+00  1.00000000E+00  1.00000000E+00  8.10000000E-01  1.00000000E+00
  0.00000000E+00  3.30000000E-01  1.90000000E-01  0.00000000E+00  4.60000000E-01
  0.00000000E+00  3.30000000E-01  1.90000000E-01  0.00000000E+00  4.60000000E-01
  0.00000000E+00  0.00000000E+00  1.00000000E+00  0.00000000E+00  0.00000000E+00
  0.00000000E+00  0.00000000E+00  1.00000000E+00  0.00000000E+00  0.00000000E+00
  0.00000000E+00  0.00000000E+00  1.00000000E+00  0.00000000E+00  0.00000000E+00
  0.00000000E+00  0.00000000E+00  1.00000000E+00  0.00000000E+00  0.00000000E+00
  0.00000000E+00  0.00000000E+00  0.00000000E+00  1.00000000E+00  1.00000000E+00
  0.00000000E+00  1.00000000E+00  0.00000000E+00  0.00000000E+00  0.00000000E+00
  0.00000000E+00  0.00000000E+00  0.00000000E+00  0.00000000E+00  0.00000000E+00
  0.00000000E+00  0.00000000E+00
MxBond                                     I                3
NBond                                      I   N=           4
           3           1           1           1
IBond                                      I   N=          12
           2           3           4           1           0           0
           1           0           0           1           0           0
RBond                                      R   N=          12
  1.00000000E+00  1.00000000E+00  2.00000000E+00  1.00000000E+00  0.00000000E+00
  0.00000000E+00  1.00000000E+00  0.00000000E+00  0.00000000E+00  2.00000000E+00
  0.00000000E+00  0.00000000E+00
Virial Ratio                               R      2.005826302694477E+00
SCF Energy                                 R     -1.144876097142031E+02
CIS Energy                                 R     -1.143609123931563E+02
Total Energy                               R     -1.143609123931563E+02
Post-SCF wavefunction norm                 R      1.000000000000000E+00
RMS Force                                  R      5.379480124434463E-04
RMS Density                                R      1.991225044904658E-09
Job Status                                 I               -1
Nuclear derivative order                   I                1
External E-field                           R   N=          35
  0.00000000E+00  0.00000000E+00  0.00000000E+00  0.00000000E+00  0.00000000E+00
  0.00000000E+00  0.00000000E+00  0.00000000E+00  0.00000000E+00  0.00000000E+00
  0.00000000E+00  0.00000000E+00  0.00000000E+00  0.00000000E+00  0.00000000E+00
  0.00000000E+00  0.00000000E+00  0.00000000E+00  0.00000000E+00  0.00000000E+00
  0.00000000E+00  0.00000000E+00  0.00000000E+00  0.00000000E+00  0.00000000E+00
  0.00000000E+00  0.00000000E+00  0.00000000E+00  0.00000000E+00  0.00000000E+00
  0.00000000E+00  0.00000000E+00  0.00000000E+00  0.00000000E+00  0.00000000E+00
IOpCl                                      I                0
IROHF                                      I                0
Alpha Orbital Energies                     R   N=          50
 -1.92237513E+01 -1.03594269E+01 -1.10874305E+00 -7.30364438E-01 -5.76668456E-01
 -5.13473959E-01 -4.49373346E-01 -3.46651997E-01 -2.41483933E-02  9.40414111E-02
  1.45041743E-01  1.47089411E-01  2.33044293E-01  2.51200639E-01  3.10952453E-01
  4.45429542E-01  4.79114843E-01  5.07130702E-01  5.15805205E-01  5.57682330E-01
  6.59204599E-01  7.75524039E-01  1.21170479E+00  1.28694867E+00  1.31758570E+00
  1.32355520E+00  1.38450424E+00  1.52204154E+00  1.67224668E+00  1.77482117E+00
  1.81473590E+00  1.98158867E+00  2.12249366E+00  2.20372582E+00  2.24646642E+00
  2.50877947E+00  2.54684469E+00  2.66419098E+00  2.70641698E+00  2.74099029E+00
  2.74879356E+00  2.77473642E+00  3.00923417E+00  3.04701633E+00  3.14076862E+00
  3.24134616E+00  3.44621868E+00  4.09479237E+00  2.18318204E+01  4.33095598E+01
Alpha MO coefficients                      R   N=        2500
  2.01083476E-05 -1.45727839E-04  3.52375298E-04  4.80321806E-04 -5.26655198E-03
  0.00000000E+00  0.00000000E+00  5.03680184E-04  0.00000000E+00  0.00000000E+00
  7.59113224E-04  0.00000000E+00  0.00000000E+00 -2.54123002E-03  4.82411620E-04
  0.00000000E+00  0.00000000E+00 -1.16999433E-04  0.00000000E+00  4.75267400E-05
 -2.22772881E-04  4.88226798E-04  0.00000000E+00 -1.00756781E-04 -2.19846291E-04
  4.75267400E-05 -2.22772881E-04  4.88226798E-04  0.00000000E+00  1.00756781E-04
 -2.19846291E-04  4.35306531E-01  6.39577471E-01  3.39052734E-02 -2.18683559E-02
  1.30424572E-02  0.00000000E+00  0.00000000E+00 -1.71702987E-03  0.00000000E+00
  0.00000000E+00  2.35618972E-03  0.00000000E+00  0.00000000E+00 -2.64012297E-03
 -2.19094552E-04  0.00000000E+00  0.00000000E+00 -5.65365826E-06  0.00000000E+00
  4.67025093E-01  6.08737816E-01  3.54931435E-02 -2.24043084E-02  1.06302204E-02
  0.00000000E+00  0.00000000E+00  4.61526650E-04  0.00000000E+00  0.00000000E+00
 -7.24299679E-04  0.00000000E+00  0.00000000E+00 -2.12076994E-03  7.02477698E-04
  0.00000000E+00  0.00000000E+00 -7.32771541E-04  0.00000000E+00 -1.93389998E-04
  5.63351863E-04 -3.18710726E-03  0.00000000E+00 -1.11846396E-03 -5.10135083E-04
 -1.93389998E-04  5.63351863E-04 -3.18710726E-03  0.00000000E+00  1.11846396E-03
 -5.10135083E-04 -5.07398021E-05 -1.82875813E-04  1.25874801E-03 -2.32934500E-03
  3.77845571E-03  0.00000000E+00  0.00000000E+00 -4.04504473E-04  0.00000000E+00
  0.00000000E+00  1.60448110E-03  0.00000000E+00  0.00000000E+00 -2.80024475E-03
 -7.84605133E-04  0.00000000E+00  0.00000000E+00  2.93258657E-05  0.00000000E+00
 -5.30255989E-02 -1.11285935E-01  1.89108168E-01  1.22352780E-01  3.57745792E-02
  0.00000000E+00  0.00000000E+00  1.23794612E-01  0.00000000E+00  0.00000000E+00
  5.71888410E-02  0.00000000E+00  0.00000000E+00  1.41486180E-03  2.13682710E-02
  0.00000000E+00  0.00000000E+00  4.94274663E-04  0.00000000E+00  1.92360735E-02
  2.05332850E-02 -6.07098142E-03  0.00000000E+00  4.44970844E-03  4.61778229E-03
  1.92360735E-02  2.05332850E-02 -6.07098142E-03  0.00000000E+00 -4.44970844E-03
  4.61778229E-03 -9.11307301E-02 -2.13882027E-01  3.14135967E-01  4.11394466E-01
  1.22435713E-01  0.00000000E+00  0.00000000E+00 -1.10074100E-01  0.00000000E+00
  0.00000000E+00 -8.81456573E-02  0.00000000E+00  0.00000000E+00  1.09698191E-03
  1.59492314E-02  0.00000000E+00  0.00000000E+00  2.82782604E-03  0.00000000E+00
 -8.21971906E-02 -1.74932706E-01  2.95372111E-01  3.11195868E-01  8.08929098E-02
  0.00000000E+00  0.00000000E+00 -1.45084374E-01  0.00000000E+00  0.00000000E+00
 -8.83218232E-02  0.00000000E+00  0.00000000E+00 -3.39650880E-02 -6.25641414E-03
  0.00000000E+00  0.00000000E+00 -1.13218934E-02  0.00000000E+00  1.11840790E-01
  1.37667353E-01  2.23444674E-02  0.00000000E+00  1.77787455E-02  5.72648708E-03
  1.11840790E-01  1.37667353E-01  2.23444674E-02  0.00000000E+00 -1.77787455E-02
  5.72648708E-03  4.22554813E-02  1.00170724E-01 -1.55152270E-01 -2.04185197E-01
 -1.36912319E-01  0.00000000E+00  0.00000000E+00 -7.37848421E-02  0.00000000E+00
  0.00000000E+00 -5.17917918E-02  0.00000000E+00  0.00000000E+00 -2.07661358E-02
  4.51574813E-03  0.00000000E+00  0.00000000E+00 -1.15350914E-03  0.00000000E+00
  0.00000000E+00  0.00000000E+00  0.00000000E+00  0.00000000E+00  0.00000000E+00
  0.00000000E+00  3.32821978E-01  0.00000000E+00  0.00000000E+00  2.37981198E-01
  0.00000000E+00  0.00000000E+00  7.56248560E-02  0.00000000E+00  0.00000000E+00
  0.00000000E+00 -4.88771223E-03  0.00000000E+00  0.00000000E+00 -1.30901656E-01
 -1.70364966E-01 -5.98592685E-02  0.00000000E+00 -1.21763873E-02 -9.87424346E-03
  1.30901656E-01  1.70364966E-01  5.98592685E-02  0.00000000E+00 -1.21763873E-02
  9.87424346E-03  0.00000000E+00  0.00000000E+00  0.00000000E+00  0.00000000E+00
  0.00000000E+00  0.00000000E+00  1.78897358E-01  0.00000000E+00  0.00000000E+00
  1.45800770E-01  0.00000000E+00  0.00000000E+00  6.12248810E-02  0.00000000E+00
  0.00000000E+00  0.00000000E+00 -1.67223011E-02  0.00000000E+00  0.00000000E+00
  1.34192130E-02  2.96545536E-02 -6.07346481E-02 -7.15528440E-02  4.49441396E-02
  0.00000000E+00  0.00000000E+00 -2.76249310E-01  0.00000000E+00  0.00000000E+00
 -2.02458994E-01  0.00000000E+00  0.00000000E+00 -3.18438725E-02 -2.09497613E-02
  0.00000000E+00  0.00000000E+00 -7.36379112E-03  0.00000000E+00  5.21315515E-02
  7.04638707E-02  3.12751017E-02  0.00000000E+00  6.83301698E-03 -4.27441084E-03
  5.21315515E-02  7.04638707E-02  3.12751017E-02  0.00000000E+00 -6.83301698E-03
 -4.27441084E-03 -3.54276472E-02 -8.41978667E-02  1.30107993E-01  1.80011932E-01
  2.33375498E-01  0.00000000E+00  0.00000000E+00  3.86999102E-01  0.00000000E+00
  0.00000000E+00  2.81616870E-01  0.00000000E+00  0.00000000E+00  1.41938423E-01
 -2.16940390E-02  0.00000000E+00  0.00000000E+00  1.01025723E-03  0.00000000E+00
  0.00000000E+00  0.00000000E+00  0.00000000E+00  0.00000000E+00  0.00000000E+00
  2.59792897E-01  0.00000000E+00  0.00000000E+00  2.29667291E-01  0.00000000E+00
  0.00000000E+00  1.09396298E-01  0.00000000E+00  0.00000000E+00  0.00000000E+00
  3.04356853E-02  0.00000000E+00  0.00000000E+00  0.00000000E+00  0.00000000E+00
  0.00000000E+00  0.00000000E+00  7.99154975E-03  0.00000000E+00  0.00000000E+00
  0.00000000E+00  0.00000000E+00  0.00000000E+00  7.99154975E-03  0.00000000E+00
  0.00000000E+00  0.00000000E+00  0.00000000E+00  0.00000000E+00  0.00000000E+00
  0.00000000E+00  3.73564539E-01  0.00000000E+00  0.00000000E+00  3.11786983E-01
  0.00000000E+00  0.00000000E+00  1.91670636E-01  0.00000000E+00  0.00000000E+00
  0.00000000E+00 -2.60222942E-02  0.00000000E+00  0.00000000E+00  0.00000000E+00
  0.00000000E+00  0.00000000E+00  0.00000000E+00  0.00000000E+00  0.00000000E+00
  0.00000000E+00 -1.06099423E-01  0.00000000E+00  0.00000000E+00 -4.50248750E-02
  0.00000000E+00  0.00000000E+00  7.61937516E-02  0.00000000E+00  0.00000000E+00
  0.00000000E+00  4.51903910E-02  0.00000000E+00  0.00000000E+00  8.77378208E-02
  1.90752577E-01  1.81677548E-01  0.00000000E+00  7.29288693E-03  4.35810498E-03
 -8.77378208E-02 -1.90752577E-01 -1.81677548E-01  0.00000000E+00  7.29288693E-03
 -4.35810498E-03  0.00000000E+00  0.00000000E+00  0.00000000E+00  0.00000000E+00
  0.00000000E+00  0.00000000E+00  4.50354686E-01  0.00000000E+00  0.00000000E+00
  3.71803978E-01  0.00000000E+00  0.00000000E+00  2.81787496E-01  0.00000000E+00
  0.00000000E+00  0.00000000E+00 -1.40588945E-02  0.00000000E+00  0.00000000E+00
  0.00000000E+00  0.00000000E+00  0.00000000E+00  0.00000000E+00  0.00000000E+00
  3.43593815E-01  0.00000000E+00  0.00000000E+00  3.28444107E-01  0.00000000E+00
  0.00000000E+00  5.13135933E-01  0.00000000E+00  0.00000000E+00  0.00000000E+00
 -2.89776294E-02  0.00000000E+00  0.00000000E+00  0.00000000E+00  0.00000000E+00
  0.00000000E+00  0.00000000E+00  2.50807963E-02  0.00000000E+00  0.00000000E+00
  0.00000000E+00  0.00000000E+00  0.00000000E+00  2.50807963E-02  0.00000000E+00
  0.00000000E+00  0.00000000E+00  0.00000000E+00  0.00000000E+00  0.00000000E+00
  0.00000000E+00 -3.21018937E-01  0.00000000E+00  0.00000000E+00 -2.47330165E-01
  0.00000000E+00  0.00000000E+00 -4.11094181E-01  0.00000000E+00  0.00000000E+00
  0.00000000E+00 -3.70002529E-03  0.00000000E+00  0.00000000E+00  0.00000000E+00
 -4.82530049E-02 -1.03311804E-01  1.66778350E-01  4.34277688E-01  2.14228308E+00
  0.00000000E+00  0.00000000E+00 -1.36544161E-01  0.00000000E+00  0.00000000E+00
 -1.18070005E-01  0.00000000E+00  0.00000000E+00 -6.61866531E-01  7.65656588E-03
  0.00000000E+00  0.00000000E+00  2.40036317E-02  0.00000000E+00 -4.83368820E-02
  8.90445213E-02 -1.86719268E+00  0.00000000E+00  2.72607877E-02  6.99436827E-03
 -4.83368820E-02  8.90445213E-02 -1.86719268E+00  0.00000000E+00 -2.72607877E-02
  6.99436827E-03 -1.08068717E-03 -2.99433717E-03  1.22836387E-02 -3.20962227E-02
  1.15516177E-01  0.00000000E+00  0.00000000E+00  4.72485275E-02  0.00000000E+00
  0.00000000E+00  5.29922438E-02  0.00000000E+00  0.00000000E+00  3.65412140E-03
  1.25392400E-03  0.00000000E+00  0.00000000E+00  2.98129550E-03  0.00000000E+00
  1.41300697E-02  3.01176049E-02 -3.99844201E-02 -2.38924334E-01 -1.48954597E+00
  0.00000000E+00  0.00000000E+00 -4.95850607E-02  0.00000000E+00  0.00000000E+00
 -9.78371837E-02  0.00000000E+00  0.00000000E+00 -1.75153204E+00  5.15203209E-02
  0.00000000E+00  0.00000000E+00  5.32720878E-03  0.00000000E+00  6.37729219E-03
 -6.56501571E-03 -2.76152562E-02  0.00000000E+00  1.03803910E-02 -1.37508090E-02
  6.37729219E-03 -6.56501571E-03 -2.76152562E-02  0.00000000E+00 -1.03803910E-02
 -1.37508090E-02 -3.23985696E-02 -8.35473109E-02  2.18410419E-01 -1.93937936E-01
  2.05271371E+00  0.00000000E+00  0.00000000E+00 -9.39938397E-02  0.00000000E+00
  0.00000000E+00 -4.84745722E-02  0.00000000E+00  0.00000000E+00 -5.88327199E-01
  4.57113958E-03  0.00000000E+00  0.00000000E+00  8.95227387E-04  0.00000000E+00
  0.00000000E+00  0.00000000E+00  0.00000000E+00  0.00000000E+00  0.00000000E+00
  0.00000000E+00  2.66879558E-01  0.00000000E+00  0.00000000E+00  2.24487269E-01
  0.00000000E+00  0.00000000E+00  1.58730671E+00  0.00000000E+00  0.00000000E+00
  0.00000000E+00  2.15115439E-02  0.00000000E+00  0.00000000E+00  1.60078914E-02
 -2.19631817E-01  2.48478049E+00  0.00000000E+00 -2.44744958E-02 -2.11886654E-02
 -1.60078914E-02  2.19631817E-01 -2.48478049E+00  0.00000000E+00 -2.44744958E-02
  2.11886654E-02  0.00000000E+00  0.00000000E+00  0.00000000E+00  0.00000000E+00
  0.00000000E+00  0.00000000E+00 -7.17334109E-02  0.00000000E+00  0.00000000E+00
 -1.98013817E-02  0.00000000E+00  0.00000000E+00 -2.97253657E-01  0.00000000E+00
  0.00000000E+00  0.00000000E+00 -1.00257420E-02  0.00000000E+00  0.00000000E+00
  1.36929258E-02  1.80276903E-02  1.87447709E-01 -1.44673804E+00  5.44619807E+00
  0.00000000E+00  0.00000000E+00  5.98369843E-03  0.00000000E+00  0.00000000E+00
  1.83393192E-01  0.00000000E+00  0.00000000E+00 -1.26700120E+00 -2.30830035E-03
  0.00000000E+00  0.00000000E+00  4.82946293E-02  0.00000000E+00 -5.97470503E-02
 -3.65432233E-01 -1.93589043E+00  0.00000000E+00  2.34661180E-02 -6.56338069E-03
 -5.97470503E-02 -3.65432233E-01 -1.93589043E+00  0.00000000E+00 -2.34661180E-02
 -6.56338069E-03  9.26479550E-03  2.35095158E-02 -5.75288519E-02  3.56629849E-02
 -4.69543493E-01  0.00000000E+00  0.00000000E+00 -2.00261090E-02  0.00000000E+00
  0.00000000E+00 -6.53539332E-02  0.00000000E+00  0.00000000E+00  2.36297798E-01
 -4.76024216E-03  0.00000000E+00  0.00000000E+00  7.55844709E-03  0.00000000E+00
  0.00000000E+00  0.00000000E+00  0.00000000E+00  0.00000000E+00  0.00000000E+00
 -3.03224783E-01  0.00000000E+00  0.00000000E+00 -7.86164592E-01  0.00000000E+00
  0.00000000E+00  1.33087424E+00  0.00000000E+00  0.00000000E+00  0.00000000E+00
 -9.46503510E-03  0.00000000E+00  0.00000000E+00  0.00000000E+00  0.00000000E+00
  0.00000000E+00  0.00000000E+00  1.26417087E-03  0.00000000E+00  0.00000000E+00
  0.00000000E+00  0.00000000E+00  0.00000000E+00  1.26417087E-03  0.00000000E+00
  0.00000000E+00  0.00000000E+00  0.00000000E+00  0.00000000E+00  0.00000000E+00
  0.00000000E+00  2.26801659E-03  0.00000000E+00  0.00000000E+00  2.10196853E-02
  0.00000000E+00  0.00000000E+00 -1.13596468E-01  0.00000000E+00  0.00000000E+00
  0.00000000E+00  1.27691614E-02  0.00000000E+00  0.00000000E+00  0.00000000E+00
  0.00000000E+00  0.00000000E+00  0.00000000E+00  0.00000000E+00  0.00000000E+00
  0.00000000E+00 -4.97616060E-02  0.00000000E+00  0.00000000E+00 -5.11026914E-01
  0.00000000E+00  0.00000000E+00  4.11081219E+00  0.00000000E+00  0.00000000E+00
  0.00000000E+00  2.70832730E-02  0.00000000E+00  0.00000000E+00  2.12689915E-02
  2.14347487E-01  2.83610459E+00  0.00000000E+00 -1.29494025E-02 -3.24014876E-02
 -2.12689915E-02 -2.14347487E-01 -2.83610459E+00  0.00000000E+00 -1.29494025E-02
  3.24014876E-02  0.00000000E+00  0.00000000E+00  0.00000000E+00  0.00000000E+00
  0.00000000E+00  0.00000000E+00 -1.81234537E-01  0.00000000E+00  0.00000000E+00
 -1.43341895E-01  0.00000000E+00  0.00000000E+00 -5.42940921E-01  0.00000000E+00
  0.00000000E+00  0.00000000E+00  1.58482732E-03  0.00000000E+00  0.00000000E+00
  6.61916302E-02  1.39532100E-01 -3.32687503E-03 -2.69516965E+00  2.84440938E+00
  0.00000000E+00  0.00000000E+00 -1.90232769E-01  0.00000000E+00  0.00000000E+00
 -5.69957617E-01  0.00000000E+00  0.00000000E+00  1.50791067E-03  1.56763884E-02
  0.00000000E+00  0.00000000E+00 -2.72925244E-03  0.00000000E+00  5.49695916E-02
  6.71307755E-01 -1.38537626E+00  0.00000000E+00  9.72746482E-03  3.88052690E-03
  5.49695916E-02  6.71307755E-01 -1.38537626E+00  0.00000000E+00 -9.72746482E-03
  3.88052690E-03 -3.24727325E-02 -7.39880422E-02  5.34453926E-02  5.43669498E-01
  1.21279785E-01  0.00000000E+00  0.00000000E+00 -1.24086996E-01  0.00000000E+00
  0.00000000E+00 -6.65708087E-02  0.00000000E+00  0.00000000E+00 -1.32277789E+00
 -2.36113781E-02  0.00000000E+00  0.00000000E+00  1.11963993E-03  0.00000000E+00
  2.89551006E-02  6.39199022E-02 -9.39000290E-03 -9.49555166E-01  3.83458149E+00
  0.00000000E+00  0.00000000E+00  3.23054782E-01  0.00000000E+00  0.00000000E+00
  1.16169372E+00  0.00000000E+00  0.00000000E+00 -1.35094141E+00 -3.06268031E-04
  0.00000000E+00  0.00000000E+00 -4.03078375E-03  0.00000000E+00  9.03492275E-02
  1.13419589E+00 -2.30680771E+00  0.00000000E+00  1.57441595E-02  3.43384445E-02
  9.03492275E-02  1.13419589E+00 -2.30680771E+00  0.00000000E+00 -1.57441595E-02
  3.43384445E-02  1.47353695E-02  3.24367057E-02 -1.59681911E-03 -3.40390195E-01
 -1.80463095E-01  0.00000000E+00  0.00000000E+00  3.73998793E-02  0.00000000E+00
  0.00000000E+00  5.60115857E-02  0.00000000E+00  0.00000000E+00  7.43467724E-01
  7.90072483E-03  0.00000000E+00  0.00000000E+00 -1.61288381E-03  0.00000000E+00
  0.00000000E+00  0.00000000E+00  0.00000000E+00  0.00000000E+00  0.00000000E+00
  0.00000000E+00 -3.66752391E-01  0.00000000E+00  0.00000000E+00 -1.27219498E+00
  0.00000000E+00  0.00000000E+00  1.09851271E+00  0.00000000E+00  0.00000000E+00
  0.00000000E+00 -4.01486344E-03  0.00000000E+00  0.00000000E+00 -9.20974616E-02
 -1.42897535E+00  1.88252057E+00  0.00000000E+00 -5.56955671E-02  5.24975831E-03
  9.20974616E-02  1.42897535E+00 -1.88252057E+00  0.00000000E+00 -5.56955671E-02
 -5.24975831E-03  0.00000000E+00  0.00000000E+00  0.00000000E+00  0.00000000E+00
  0.00000000E+00  0.00000000E+00  7.59632822E-02  0.00000000E+00  0.00000000E+00
  4.30785153E-02  0.00000000E+00  0.00000000E+00  3.16176686E-01  0.00000000E+00
  0.00000000E+00  0.00000000E+00  3.07279935E-02  0.00000000E+00  0.00000000E+00