 Entering Gaussian System, Link 0=g16
 Input=formaldehyde_es_CAM-B3LYP_freq.gjf
 Output=formaldehyde_es_CAM-B3LYP_freq.log
 Initial command:
 /apps/gaussian/g16-c01-avx2/g16/l1.exe "/var/tmp/pbs.8968538.pbs/Gau-1376581.inp" -scrdir="/var/tmp/pbs.8968538.pbs/"
 Entering Link 1 = /apps/gaussian/g16-c01-avx2/g16/l1.exe PID=   1376661.
  
 Copyright (c) 1988-2019, Gaussian, Inc.  All Rights Reserved.
  
 This is part of the Gaussian(R) 16 program.  It is based on
 the Gaussian(R) 09 system (copyright 2009, Gaussian, Inc.),
 the Gaussian(R) 03 system (copyright 2003, Gaussian, Inc.),
 the Gaussian(R) 98 system (copyright 1998, Gaussian, Inc.),
 the Gaussian(R) 94 system (copyright 1995, Gaussian, Inc.),
 the Gaussian 92(TM) system (copyright 1992, Gaussian, Inc.),
 the Gaussian 90(TM) system (copyright 1990, Gaussian, Inc.),
 the Gaussian 88(TM) system (copyright 1988, Gaussian, Inc.),
 the Gaussian 86(TM) system (copyright 1986, Carnegie Mellon
 University), and the Gaussian 82(TM) system (copyright 1983,
 Carnegie Mellon University). Gaussian is a federally registered
 trademark of Gaussian, Inc.
  
 This software contains proprietary and confidential information,
 including trade secrets, belonging to Gaussian, Inc.
  
 This software is provided under written license and may be
 used, copied, transmitted, or stored only in accord with that
 written license.
  
 The following legend is applicable only to US Government
 contracts under FAR:
  
                    RESTRICTED RIGHTS LEGEND
  
 Use, reproduction and disclosure by the US Government is
 subject to restrictions as set forth in subparagraphs (a)
 and (c) of the Commercial Computer Software - Restricted
 Rights clause in FAR 52.227-19.
  
 Gaussian, Inc.
 340 Quinnipiac St., Bldg. 40, Wallingford CT 06492
  
  
 ---------------------------------------------------------------
 Warning -- This program may not be used in any manner that
 competes with the business of Gaussian, Inc. or will provide
 assistance to any competitor of Gaussian, Inc.  The licensee
 of this program is prohibited from giving any competitor of
 Gaussian, Inc. access to this program.  By using this program,
 the user acknowledges that Gaussian, Inc. is engaged in the
 business of creating and licensing software in the field of
 computational chemistry and represents and warrants to the
 licensee that it is not a competitor of Gaussian, Inc. and that
 it will not use this program in any manner prohibited above.
 ---------------------------------------------------------------
  

 Cite this work as:
 Gaussian 16, Revision C.01,
 M. J. Frisch, G. W. Trucks, H. B. Schlegel, G. E. Scuseria, 
 M. A. Robb, J. R. Cheeseman, G. Scalmani, V. Barone, 
 G. A. Petersson, H. Nakatsuji, X. Li, M. Caricato, A. V. Marenich, 
 J. Bloino, B. G. Janesko, R. Gomperts, B. Mennucci, H. P. Hratchian, 
 J. V. Ortiz, A. F. Izmaylov, J. L. Sonnenberg, D. Williams-Young, 
 F. Ding, F. Lipparini, F. Egidi, J. Goings, B. Peng, A. Petrone, 
 T. Henderson, D. Ranasinghe, V. G. Zakrzewski, J. Gao, N. Rega, 
 G. Zheng, W. Liang, M. Hada, M. Ehara, K. Toyota, R. Fukuda, 
 J. Hasegawa, M. Ishida, T. Nakajima, Y. Honda, O. Kitao, H. Nakai, 
 T. Vreven, K. Throssell, J. A. Montgomery, Jr., J. E. Peralta, 
 F. Ogliaro, M. J. Bearpark, J. J. Heyd, E. N. Brothers, K. N. Kudin, 
 V. N. Staroverov, T. A. Keith, R. Kobayashi, J. Normand, 
 K. Raghavachari, A. P. Rendell, J. C. Burant, S. S. Iyengar, 
 J. Tomasi, M. Cossi, J. M. Millam, M. Klene, C. Adamo, R. Cammi, 
 J. W. Ochterski, R. L. Martin, K. Morokuma, O. Farkas, 
 J. B. Foresman, and D. J. Fox, Gaussian, Inc., Wallingford CT, 2019.
 
 ******************************************
 Gaussian 16:  ES64L-G16RevC.01  3-Jul-2019
                22-Feb-2024 
 ******************************************
 %oldchk=/rds/general/user/rk820/home/dibs-g16/fc_ht/formaldehyde/formaldehyde.ch
 k
 %chk=/rds/general/user/rk820/home/dibs-g16/fc_ht/formaldehyde/formaldehyde_es_CA
 M-B3LYP_freq.chk
 Copying data from "/rds/general/user/rk820/home/dibs-g16/fc_ht/formaldehyde/formaldehyde.chk" to current chk file "/rds/general/user/rk820/home/dibs-g16/fc_ht/formaldehyde/formaldehyde_es_CAM-B3LYP_freq.chk"
 IOpt=  2 FromEx=T IUOpen= 4 IOptOp= 5 NList=   0 IFRang= 0 IUIn= 4 IUOut= 2.
 --------------------------------------------------------------------
 #p CAM-B3LYP/TZVP TD=(nstates=2) geom=check Density=Current opt freq
 --------------------------------------------------------------------
 1/18=20,19=15,26=3,29=2,38=1/1,3;
 2/9=110,12=2,40=1/2;
 3/5=19,7=101,11=9,14=-4,25=1,30=1,71=1,74=-40/1,2,3,8;
 4//1;
 5/5=2,38=5/2;
 8/6=1,10=1,108=2/1;
 9/15=2,41=2,42=1,70=2/14;
 10/5=4/2;
 6/7=2,8=2,9=2,10=2,22=-1/1;
 7/12=6,13=5/1,2,3,16;
 1/18=20,19=15,26=3/3(2);
 2/9=110/2;
 99//99;
 2/9=110/2;
 3/5=19,7=101,11=9,14=-2,25=1,30=1,71=1,74=-40/1,2,3,8;
 4/5=5,16=3,69=1/1;
 5/5=2,38=5/2;
 8/6=1,10=1,108=2/1;
 9/15=2,41=2,42=1,49=4,70=2/14;
 10/5=4/2;
 7/12=6,13=5/1,2,3,16;
 1/18=20,19=15,26=3/3(-8);
 2/9=110/2;
 6/7=2,8=2,9=2,10=2,22=-1/1;
 99/9=10/99;
 Leave Link    1 at Thu Feb 22 03:19:22 2024, MaxMem=   104857600 cpu:               0.0 elap:               0.1
 (Enter /apps/gaussian/g16-c01-avx2/g16/l101.exe)
 ----------------------------------------------------------------------
 HF/STO-3G for formaldehyde, calculating the first two excited states a
 nd optimizing its geometry, followed by a vibrational analysis.
 ----------------------------------------------------------------------
 Structure from the checkpoint file:  "/rds/general/user/rk820/home/dibs-g16/fc_ht/formaldehyde/formaldehyde_es_CAM-B3LYP_freq.chk"
 Charge =  0 Multiplicity = 1
 Redundant internal coordinates found in file.  (old form).
 C,0,-0.5018872686,-0.3688974972,0.
 H,0,0.0025477186,-1.3477056253,0.
 H,0,-1.6017582726,-0.4218482504,0.
 O,0,0.1061955746,0.684775536,0.
 Recover connectivity data from disk.
 ITRead=  0  0  0  0
 MicOpt= -1 -1 -1 -1
 NAtoms=      4 NQM=        4 NQMF=       0 NMMI=      0 NMMIF=      0
                NMic=       0 NMicF=      0.
                    Isotopes and Nuclear Properties:
 (Nuclear quadrupole moments (NQMom) in fm**2, nuclear magnetic moments (NMagM)
  in nuclear magnetons)

  Atom         1           2           3           4
 IAtWgt=          12           1           1          16
 AtmWgt=  12.0000000   1.0078250   1.0078250  15.9949146
 NucSpn=           0           1           1           0
 AtZEff=   3.6000000   1.0000000   1.0000000   5.6000000
 NQMom=    0.0000000   0.0000000   0.0000000   0.0000000
 NMagM=    0.0000000   2.7928460   2.7928460   0.0000000
 AtZNuc=   6.0000000   1.0000000   1.0000000   8.0000000
 Leave Link  101 at Thu Feb 22 03:19:23 2024, MaxMem=   104857600 cpu:               0.1 elap:               0.1
 (Enter /apps/gaussian/g16-c01-avx2/g16/l103.exe)

 GradGradGradGradGradGradGradGradGradGradGradGradGradGradGradGradGradGrad
 Berny optimization.
 Initialization pass.
                           ----------------------------
                           !    Initial Parameters    !
                           ! (Angstroms and Degrees)  !
 --------------------------                            --------------------------
 ! Name  Definition              Value          Derivative Info.                !
 --------------------------------------------------------------------------------
 ! R1    R(1,2)                  1.1011         estimate D2E/DX2                !
 ! R2    R(1,3)                  1.1011         estimate D2E/DX2                !
 ! R3    R(1,4)                  1.2165         estimate D2E/DX2                !
 ! A1    A(2,1,3)              114.5084         estimate D2E/DX2                !
 ! A2    A(2,1,4)              122.7458         estimate D2E/DX2                !
 ! A3    A(3,1,4)              122.7458         estimate D2E/DX2                !
 ! D1    D(2,1,4,3)            180.0            estimate D2E/DX2                !
 --------------------------------------------------------------------------------
 Trust Radius=3.00D-01 FncErr=1.00D-07 GrdErr=1.00D-06 EigMax=2.50D+02 EigMin=1.00D-04
 Number of steps in this run=     20 maximum allowed number of steps=    100.
 GradGradGradGradGradGradGradGradGradGradGradGradGradGradGradGradGradGrad

 Leave Link  103 at Thu Feb 22 03:19:23 2024, MaxMem=   104857600 cpu:               0.0 elap:               0.0
 (Enter /apps/gaussian/g16-c01-avx2/g16/l202.exe)
                          Input orientation:                          
 ---------------------------------------------------------------------
 Center     Atomic      Atomic             Coordinates (Angstroms)
 Number     Number       Type             X           Y           Z
 ---------------------------------------------------------------------
      1          6           0       -0.501887   -0.368897    0.000000
      2          1           0        0.002548   -1.347706    0.000000
      3          1           0       -1.601758   -0.421848   -0.000000
      4          8           0        0.106196    0.684776   -0.000000
 ---------------------------------------------------------------------
                    Distance matrix (angstroms):
                    1          2          3          4
     1  C    0.000000
     2  H    1.101145   0.000000
     3  H    1.101145   1.852298   0.000000
     4  O    1.216549   2.035122   2.035122   0.000000
 Stoichiometry    CH2O
 Framework group  C2V[C2(CO),SGV(H2)]
 Deg. of freedom     3
 Full point group                 C2V     NOp   4
 RotChk:  IX=3 Diff= 2.26D-16
 Largest Abelian subgroup         C2V     NOp   4
 Largest concise Abelian subgroup C2      NOp   2
                         Standard orientation:                         
 ---------------------------------------------------------------------
 Center     Atomic      Atomic             Coordinates (Angstroms)
 Number     Number       Type             X           Y           Z
 ---------------------------------------------------------------------
      1          6           0       -0.000000    0.000000   -0.533822
      2          1           0       -0.000000   -0.926149   -1.129445
      3          1           0        0.000000    0.926149   -1.129445
      4          8           0        0.000000   -0.000000    0.682727
 ---------------------------------------------------------------------
 Rotational constants (GHZ):         292.3076086          38.0571270          33.6730486
 Leave Link  202 at Thu Feb 22 03:19:24 2024, MaxMem=   104857600 cpu:               0.0 elap:               0.1
 (Enter /apps/gaussian/g16-c01-avx2/g16/l301.exe)
 Standard basis: TZVP (5D, 7F)
 Ernie: Thresh=  0.10000D-02 Tol=  0.10000D-05 Strict=F.
 There are    27 symmetry adapted cartesian basis functions of A1  symmetry.
 There are     3 symmetry adapted cartesian basis functions of A2  symmetry.
 There are     9 symmetry adapted cartesian basis functions of B1  symmetry.
 There are    13 symmetry adapted cartesian basis functions of B2  symmetry.
 There are    25 symmetry adapted basis functions of A1  symmetry.
 There are     3 symmetry adapted basis functions of A2  symmetry.
 There are     9 symmetry adapted basis functions of B1  symmetry.
 There are    13 symmetry adapted basis functions of B2  symmetry.
    50 basis functions,    86 primitive gaussians,    52 cartesian basis functions
     8 alpha electrons        8 beta electrons
       nuclear repulsion energy        31.0920308439 Hartrees.
 IExCor=20419 DFT=T Ex+Corr=CAM-B3LYP ExCW=0 ScaHFX=  1.000000
 ScaDFX=  1.000000  1.000000  1.000000  0.810000 ScalE2=  1.000000  1.000000
 IRadAn=      5 IRanWt=     -1 IRanGd=            0 ICorTp=0 IEmpDi=  4
 HFx  wShort=  0.000000 wLong=  0.330000 cFull=  0.190000 cShort=  0.000000 cLong=  0.460000
 DFx  wShort=  0.000000 wLong=  0.330000 cFull=  0.190000 cShort=  0.000000 cLong=  0.460000
 NAtoms=    4 NActive=    4 NUniq=    3 SFac= 1.78D+00 NAtFMM=   60 NAOKFM=F Big=F
 Integral buffers will be    131072 words long.
 Raffenetti 1 integral format.
 Two-electron integral symmetry is turned on.
 Leave Link  301 at Thu Feb 22 03:19:24 2024, MaxMem=   104857600 cpu:               0.0 elap:               0.1
 (Enter /apps/gaussian/g16-c01-avx2/g16/l302.exe)
 NPDir=0 NMtPBC=     1 NCelOv=     1 NCel=       1 NClECP=     1 NCelD=      1
         NCelK=      1 NCelE2=     1 NClLst=     1 CellRange=     0.0.
 One-electron integrals computed using PRISM.
 One-electron integral symmetry used in STVInt
 NBasis=    50 RedAO= T EigKep=  5.34D-03  NBF=    25     3     9    13
 NBsUse=    50 1.00D-06 EigRej= -1.00D+00 NBFU=    25     3     9    13
 Precomputing XC quadrature grid using
 IXCGrd= 4 IRadAn=           5 IRanWt=          -1 IRanGd=           0 AccXCQ= 0.00D+00.
 Generated NRdTot=       0 NPtTot=           0 NUsed=           0 NTot=          32
 NSgBfM=    52    52    52    52    52 MxSgAt=     4 MxSgA2=     4.
 Leave Link  302 at Thu Feb 22 03:19:25 2024, MaxMem=   104857600 cpu:               0.1 elap:               0.1
 (Enter /apps/gaussian/g16-c01-avx2/g16/l303.exe)
 DipDrv:  MaxL=1.
 Leave Link  303 at Thu Feb 22 03:19:25 2024, MaxMem=   104857600 cpu:               0.0 elap:               0.0
 (Enter /apps/gaussian/g16-c01-avx2/g16/l308.exe)
 Leave Link  308 at Thu Feb 22 03:19:26 2024, MaxMem=   104857600 cpu:               0.0 elap:               0.0
 (Enter /apps/gaussian/g16-c01-avx2/g16/l401.exe)
 ExpMin= 9.52D-02 ExpMax= 2.70D+04 ExpMxC= 9.22D+02 IAcc=3 IRadAn=         5 AccDes= 0.00D+00
 Harris functional with IExCor=20419 and IRadAn=       5 diagonalized for initial guess.
 HarFok:  IExCor=20419 AccDes= 0.00D+00 IRadAn=         5 IDoV= 1 UseB2=F ITyADJ=14
 ICtDFT=  3500011 ScaDFX=  1.000000  1.000000  1.000000  1.000000
 FoFCou: FMM=F IPFlag=           0 FMFlag=      100000 FMFlg1=           0
         NFxFlg=           0 DoJE=T BraDBF=F KetDBF=T FulRan=T
         wScrn=  0.000000 ICntrl=       500 IOpCl=  0 I1Cent=   200000004 NGrid=           0
         NMat0=    1 NMatS0=      1 NMatT0=    0 NMatD0=    1 NMtDS0=    0 NMtDT0=    0
 Petite list used in FoFCou.
 Harris En= -110.518230606485    
 JPrj=0 DoOrth=F DoCkMO=F.
 Initial guess orbital symmetries:
       Occupied  (A1) (A1) (A1) (A1) (B2) (A1) (B1) (B2)
       Virtual   (B1) (A1) (A1) (B2) (B1) (A1) (B2) (A1) (A1) (B2)
                 (B1) (A1) (B2) (A1) (A2) (A1) (B2) (A1) (B1) (B1)
                 (B2) (B2) (A1) (B1) (A1) (A2) (A1) (A1) (B2) (B1)
                 (A1) (B2) (A2) (A1) (A1) (B2) (A1) (B1) (B2) (A1)
                 (A1) (A1)
 The electronic state of the initial guess is 1-A1.
 Leave Link  401 at Thu Feb 22 03:19:26 2024, MaxMem=   104857600 cpu:               0.1 elap:               0.2
 (Enter /apps/gaussian/g16-c01-avx2/g16/l502.exe)
 Keep R1 ints in memory in symmetry-blocked form, NReq=2575049.
 FoFCou: FMM=F IPFlag=           0 FMFlag=           0 FMFlg1=           0
         NFxFlg=           0 DoJE=F BraDBF=F KetDBF=F FulRan=T
         wScrn=  0.000000 ICntrl=       600 IOpCl=  0 I1Cent=           0 NGrid=           0
         NMat0=    1 NMatS0=   1275 NMatT0=    0 NMatD0=    1 NMtDS0=    0 NMtDT0=    0
 Petite list used in FoFCou.
 Closed shell SCF:
 Using DIIS extrapolation, IDIIS=  1040.
 NGot=   104857600 LenX=   104621700 LenY=   104618555
 Requested convergence on RMS density matrix=1.00D-08 within 128 cycles.
 Requested convergence on MAX density matrix=1.00D-06.
 Requested convergence on             energy=1.00D-06.
 No special actions if energy rises.
 Integral accuracy reduced to 1.0D-05 until final iterations.

 Cycle   1  Pass 0  IDiag  1:
 E= -114.473693568680    
 DIIS: error= 7.71D-02 at cycle   1 NSaved=   1.
 NSaved= 1 IEnMin= 1 EnMin= -114.473693568680     IErMin= 1 ErrMin= 7.71D-02
 ErrMax= 7.71D-02  0.00D+00 EMaxC= 1.00D-01 BMatC= 1.86D-01 BMatP= 1.86D-01
 IDIUse=3 WtCom= 2.29D-01 WtEn= 7.71D-01
 Coeff-Com:  0.100D+01
 Coeff-En:   0.100D+01
 Coeff:      0.100D+01
 Gap=     0.348 Goal=   None    Shift=    0.000
 GapD=    0.348 DampG=1.000 DampE=0.500 DampFc=0.5000 IDamp=-1.
 Damping current iteration by 5.00D-01
 RMSDP=4.54D-03 MaxDP=4.21D-02              OVMax= 6.89D-02

 Cycle   2  Pass 0  IDiag  1:
 E= -114.484706499875     Delta-E=       -0.011012931195 Rises=F Damp=T
 DIIS: error= 3.36D-02 at cycle   2 NSaved=   2.
 NSaved= 2 IEnMin= 2 EnMin= -114.484706499875     IErMin= 2 ErrMin= 3.36D-02
 ErrMax= 3.36D-02  0.00D+00 EMaxC= 1.00D-01 BMatC= 3.60D-02 BMatP= 1.86D-01
 IDIUse=3 WtCom= 6.64D-01 WtEn= 3.36D-01
 Coeff-Com: -0.558D+00 0.156D+01
 Coeff-En:   0.000D+00 0.100D+01
 Coeff:     -0.370D+00 0.137D+01
 Gap=     0.324 Goal=   None    Shift=    0.000
 RMSDP=1.90D-03 MaxDP=2.09D-02 DE=-1.10D-02 OVMax= 8.47D-02

 Cycle   3  Pass 0  IDiag  1:
 E= -114.487401850020     Delta-E=       -0.002695350144 Rises=F Damp=F
 DIIS: error= 2.13D-02 at cycle   3 NSaved=   3.
 NSaved= 3 IEnMin= 3 EnMin= -114.487401850020     IErMin= 3 ErrMin= 2.13D-02
 ErrMax= 2.13D-02  0.00D+00 EMaxC= 1.00D-01 BMatC= 1.51D-02 BMatP= 3.60D-02
 IDIUse=3 WtCom= 7.87D-01 WtEn= 2.13D-01
 Coeff-Com: -0.385D+00 0.859D+00 0.526D+00
 Coeff-En:   0.000D+00 0.364D+00 0.636D+00
 Coeff:     -0.303D+00 0.754D+00 0.549D+00
 Gap=     0.342 Goal=   None    Shift=    0.000
 RMSDP=1.72D-03 MaxDP=1.81D-02 DE=-2.70D-03 OVMax= 5.19D-02

 Cycle   4  Pass 0  IDiag  1:
 E= -114.496867639061     Delta-E=       -0.009465789041 Rises=F Damp=F
 DIIS: error= 5.83D-03 at cycle   4 NSaved=   4.
 NSaved= 4 IEnMin= 4 EnMin= -114.496867639061     IErMin= 4 ErrMin= 5.83D-03
 ErrMax= 5.83D-03  0.00D+00 EMaxC= 1.00D-01 BMatC= 1.26D-03 BMatP= 1.51D-02
 IDIUse=3 WtCom= 9.42D-01 WtEn= 5.83D-02
 Coeff-Com: -0.105D+00 0.229D+00 0.295D+00 0.581D+00
 Coeff-En:   0.000D+00 0.000D+00 0.596D-01 0.940D+00
 Coeff:     -0.990D-01 0.216D+00 0.281D+00 0.602D+00
 Gap=     0.336 Goal=   None    Shift=    0.000
 RMSDP=3.39D-04 MaxDP=4.26D-03 DE=-9.47D-03 OVMax= 1.32D-02

 Cycle   5  Pass 0  IDiag  1:
 E= -114.497761885374     Delta-E=       -0.000894246314 Rises=F Damp=F
 DIIS: error= 3.91D-04 at cycle   5 NSaved=   5.
 NSaved= 5 IEnMin= 5 EnMin= -114.497761885374     IErMin= 5 ErrMin= 3.91D-04
 ErrMax= 3.91D-04  0.00D+00 EMaxC= 1.00D-01 BMatC= 4.83D-06 BMatP= 1.26D-03
 IDIUse=3 WtCom= 9.96D-01 WtEn= 3.91D-03
 Coeff-Com:  0.141D-01-0.305D-01-0.151D-01 0.580D-01 0.974D+00
 Coeff-En:   0.000D+00 0.000D+00 0.000D+00 0.000D+00 0.100D+01
 Coeff:      0.140D-01-0.304D-01-0.151D-01 0.578D-01 0.974D+00
 Gap=     0.336 Goal=   None    Shift=    0.000
 RMSDP=4.37D-05 MaxDP=4.83D-04 DE=-8.94D-04 OVMax= 7.40D-04

 Cycle   6  Pass 0  IDiag  1:
 E= -114.497765891028     Delta-E=       -0.000004005653 Rises=F Damp=F
 DIIS: error= 4.59D-05 at cycle   6 NSaved=   6.
 NSaved= 6 IEnMin= 6 EnMin= -114.497765891028     IErMin= 6 ErrMin= 4.59D-05
 ErrMax= 4.59D-05  0.00D+00 EMaxC= 1.00D-01 BMatC= 7.39D-08 BMatP= 4.83D-06
 IDIUse=1 WtCom= 1.00D+00 WtEn= 0.00D+00
 Coeff-Com:  0.193D-02-0.419D-02-0.750D-02-0.104D-01 0.125D-01 0.101D+01
 Coeff:      0.193D-02-0.419D-02-0.750D-02-0.104D-01 0.125D-01 0.101D+01
 Gap=     0.337 Goal=   None    Shift=    0.000
 RMSDP=1.16D-05 MaxDP=1.30D-04 DE=-4.01D-06 OVMax= 1.42D-04

 Cycle   7  Pass 0  IDiag  1:
 E= -114.497765970589     Delta-E=       -0.000000079562 Rises=F Damp=F
 DIIS: error= 4.39D-06 at cycle   7 NSaved=   7.
 NSaved= 7 IEnMin= 7 EnMin= -114.497765970589     IErMin= 7 ErrMin= 4.39D-06
 ErrMax= 4.39D-06  0.00D+00 EMaxC= 1.00D-01 BMatC= 5.71D-10 BMatP= 7.39D-08
 IDIUse=1 WtCom= 1.00D+00 WtEn= 0.00D+00
 Coeff-Com: -0.460D-03 0.991D-03 0.706D-03-0.109D-02-0.270D-01-0.730D-01
 Coeff-Com:  0.110D+01
 Coeff:     -0.460D-03 0.991D-03 0.706D-03-0.109D-02-0.270D-01-0.730D-01
 Coeff:      0.110D+01
 Gap=     0.337 Goal=   None    Shift=    0.000
 RMSDP=2.06D-06 MaxDP=2.10D-05 DE=-7.96D-08 OVMax= 2.67D-05

 Initial convergence to 1.0D-05 achieved.  Increase integral accuracy.
 Cycle   8  Pass 1  IDiag  1:
 E= -114.497765900060     Delta-E=        0.000000070529 Rises=F Damp=F
 DIIS: error= 1.23D-06 at cycle   1 NSaved=   1.
 NSaved= 1 IEnMin= 1 EnMin= -114.497765900060     IErMin= 1 ErrMin= 1.23D-06
 ErrMax= 1.23D-06  0.00D+00 EMaxC= 1.00D-01 BMatC= 6.38D-11 BMatP= 6.38D-11
 IDIUse=1 WtCom= 1.00D+00 WtEn= 0.00D+00
 Coeff-Com:  0.100D+01
 Coeff:      0.100D+01
 Gap=     0.337 Goal=   None    Shift=    0.000
 RMSDP=2.06D-06 MaxDP=2.10D-05 DE= 7.05D-08 OVMax= 3.36D-06

 Cycle   9  Pass 1  IDiag  1:
 E= -114.497765900107     Delta-E=       -0.000000000047 Rises=F Damp=F
 DIIS: error= 1.34D-06 at cycle   2 NSaved=   2.
 NSaved= 2 IEnMin= 2 EnMin= -114.497765900107     IErMin= 1 ErrMin= 1.23D-06
 ErrMax= 1.34D-06  0.00D+00 EMaxC= 1.00D-01 BMatC= 4.71D-11 BMatP= 6.38D-11
 IDIUse=1 WtCom= 1.00D+00 WtEn= 0.00D+00
 Coeff-Com:  0.454D+00 0.546D+00
 Coeff:      0.454D+00 0.546D+00
 Gap=     0.337 Goal=   None    Shift=    0.000
 RMSDP=9.41D-08 MaxDP=1.30D-06 DE=-4.67D-11 OVMax= 4.08D-06

 Cycle  10  Pass 1  IDiag  1:
 E= -114.497765900140     Delta-E=       -0.000000000033 Rises=F Damp=F
 DIIS: error= 5.30D-07 at cycle   3 NSaved=   3.
 NSaved= 3 IEnMin= 3 EnMin= -114.497765900140     IErMin= 3 ErrMin= 5.30D-07
 ErrMax= 5.30D-07  0.00D+00 EMaxC= 1.00D-01 BMatC= 1.27D-11 BMatP= 4.71D-11
 IDIUse=1 WtCom= 1.00D+00 WtEn= 0.00D+00
 Coeff-Com: -0.665D-02 0.330D+00 0.676D+00
 Coeff:     -0.665D-02 0.330D+00 0.676D+00
 Gap=     0.337 Goal=   None    Shift=    0.000
 RMSDP=5.26D-08 MaxDP=4.70D-07 DE=-3.31D-11 OVMax= 1.08D-06

 Cycle  11  Pass 1  IDiag  1:
 E= -114.497765900148     Delta-E=       -0.000000000009 Rises=F Damp=F
 DIIS: error= 1.37D-07 at cycle   4 NSaved=   4.
 NSaved= 4 IEnMin= 4 EnMin= -114.497765900148     IErMin= 4 ErrMin= 1.37D-07
 ErrMax= 1.37D-07  0.00D+00 EMaxC= 1.00D-01 BMatC= 6.10D-13 BMatP= 1.27D-11
 IDIUse=1 WtCom= 1.00D+00 WtEn= 0.00D+00
 Coeff-Com: -0.732D-01 0.891D-01 0.242D+00 0.742D+00
 Coeff:     -0.732D-01 0.891D-01 0.242D+00 0.742D+00
 Gap=     0.337 Goal=   None    Shift=    0.000
 RMSDP=1.43D-08 MaxDP=1.59D-07 DE=-8.61D-12 OVMax= 2.99D-07

 Cycle  12  Pass 1  IDiag  1:
 E= -114.497765900149     Delta-E=       -0.000000000001 Rises=F Damp=F
 DIIS: error= 1.33D-08 at cycle   5 NSaved=   5.
 NSaved= 5 IEnMin= 5 EnMin= -114.497765900149     IErMin= 5 ErrMin= 1.33D-08
 ErrMax= 1.33D-08  0.00D+00 EMaxC= 1.00D-01 BMatC= 1.07D-14 BMatP= 6.10D-13
 IDIUse=1 WtCom= 1.00D+00 WtEn= 0.00D+00
 Coeff-Com: -0.103D-02-0.895D-02-0.359D-01-0.514D-01 0.110D+01
 Coeff:     -0.103D-02-0.895D-02-0.359D-01-0.514D-01 0.110D+01
 Gap=     0.337 Goal=   None    Shift=    0.000
 RMSDP=5.37D-09 MaxDP=5.27D-08 DE=-6.82D-13 OVMax= 7.77D-08

 SCF Done:  E(RCAM-B3LYP) =  -114.497765900     A.U. after   12 cycles
            NFock= 12  Conv=0.54D-08     -V/T= 2.0043
 KE= 1.140108168179D+02 PE=-3.311224146438D+02 EE= 7.152180108185D+01
 Leave Link  502 at Thu Feb 22 03:19:28 2024, MaxMem=   104857600 cpu:               0.7 elap:               0.8
 (Enter /apps/gaussian/g16-c01-avx2/g16/l801.exe)
 DoSCS=F DFT=T ScalE2(SS,OS)=  1.000000  1.000000
 ExpMin= 9.52D-02 ExpMax= 2.70D+04 ExpMxC= 9.22D+02 IAcc=3 IRadAn=         5 AccDes= 0.00D+00
 HarFok:  IExCor=  205 AccDes= 0.00D+00 IRadAn=         5 IDoV=-2 UseB2=F ITyADJ=14
 ICtDFT= 12500011 ScaDFX=  1.000000  1.000000  1.000000  1.000000
 Largest valence mixing into a core orbital is  5.38D-05
 Largest core mixing into a valence orbital is  7.38D-06
 Range of M.O.s used for correlation:     3    50
 NBasis=    50 NAE=     8 NBE=     8 NFC=     2 NFV=     0
 NROrb=     48 NOA=     6 NOB=     6 NVA=    42 NVB=    42
 Leave Link  801 at Thu Feb 22 03:19:28 2024, MaxMem=   104857600 cpu:               0.1 elap:               0.2
 (Enter /apps/gaussian/g16-c01-avx2/g16/l914.exe)
 RHF ground state
 Keep R1, R2, and R3 ints in memory in symmetry-blocked form, NReq=2753452.
 FoFCou: FMM=F IPFlag=           0 FMFlag=           0 FMFlg1=           0
         NFxFlg=           0 DoJE=F BraDBF=F KetDBF=F FulRan=T
         wScrn=  0.000000 ICntrl=       600 IOpCl=  0 I1Cent=           0 NGrid=           0
         NMat0=    1 NMatS0=   1275 NMatT0=    0 NMatD0=    1 NMtDS0=    0 NMtDT0=    0
 Petite list used in FoFCou.
 MDV=   104857600 DFT=T DoStab=F Mixed=T DoRPA=T DoScal=F NonHer=T
 Making orbital integer symmetry assigments:
 Orbital symmetries:
       Occupied  (A1) (A1) (A1) (A1) (B2) (A1) (B1) (B2)
       Virtual   (B1) (A1) (A1) (B2) (A1) (B1) (B2) (A1) (A1) (B2)
                 (B1) (A1) (B2) (A1) (A2) (A1) (A1) (B2) (B1) (B1)
                 (B2) (A1) (B2) (B1) (A2) (A1) (A1) (A1) (B2) (B1)
                 (A1) (B2) (A2) (A1) (A1) (B2) (A1) (B1) (B2) (A1)
                 (A1) (A1)
     8 initial guesses have been made.
 Convergence on wavefunction:    0.000001000000000
 Davidson Disk Diagonalization:  ConvIn= 1.00D-06 SkipCon=T Conv= 1.00D-06.
 Max sub-space:  1512 roots to seek:     8 dimension of matrix:          504
 Iteration     1 Dimension     8 NMult     0 NNew      8
 CISAX will form     8 AO SS matrices at one time.
 NMat=     8 NSing=     8 JSym2X=-1.
 Excitation Energies [eV] at current iteration:
 Root      1 :     3.982104815479669
 Root      2 :     8.432078050351546
 Root      3 :     9.304703971883365
 Root      4 :     9.367340480123566
 Root      5 :    10.214714416837509
 Root      6 :    10.236811563040646
 Root      7 :    11.798871884498322
 Root      8 :    12.332170773001588
 Iteration     2 Dimension    12 NMult     8 NNew      4
 CISAX will form     4 AO SS matrices at one time.
 NMat=     4 NSing=     4 JSym2X=-1.
 Root      1 not converged, maximum delta is    0.044417044512756
 Root      2 not converged, maximum delta is    0.029100192349295
 Excitation Energies [eV] at current iteration:
 Root      1 :     3.879912201228582   Change is   -0.102192614251087
 Root      2 :     8.364888317000871   Change is   -0.067189733350675
 Iteration     3 Dimension    16 NMult    12 NNew      4
 CISAX will form     4 AO SS matrices at one time.
 NMat=     4 NSing=     4 JSym2X=-1.
 Root      1 not converged, maximum delta is    0.004691412041671
 Root      2 not converged, maximum delta is    0.007597434647170
 Excitation Energies [eV] at current iteration:
 Root      1 :     3.879020011247312   Change is   -0.000892189981270
 Root      2 :     8.362258514189774   Change is   -0.002629802811097
 Iteration     4 Dimension    20 NMult    16 NNew      4
 CISAX will form     4 AO SS matrices at one time.
 NMat=     4 NSing=     4 JSym2X=-1.
 Root      1 not converged, maximum delta is    0.000319779419116
 Root      2 not converged, maximum delta is    0.001118152969919
 Excitation Energies [eV] at current iteration:
 Root      1 :     3.879009217576932   Change is   -0.000010793670380
 Root      2 :     8.362169098018175   Change is   -0.000089416171599
 Iteration     5 Dimension    24 NMult    20 NNew      4
 CISAX will form     4 AO SS matrices at one time.
 NMat=     4 NSing=     4 JSym2X=-1.
 Root      1 not converged, maximum delta is    0.000012199109897
 Root      2 not converged, maximum delta is    0.000147841069897
 Excitation Energies [eV] at current iteration:
 Root      1 :     3.879009191751627   Change is   -0.000000025825306
 Root      2 :     8.362165947417740   Change is   -0.000003150600436
 Iteration     6 Dimension    28 NMult    24 NNew      4
 CISAX will form     4 AO SS matrices at one time.
 NMat=     4 NSing=     4 JSym2X=-1.
 Root      1 has converged.
 Root      2 not converged, maximum delta is    0.000037365235276
 Excitation Energies [eV] at current iteration:
 Root      1 :     3.879009191653609   Change is   -0.000000000098017
 Root      2 :     8.362165844691487   Change is   -0.000000102726251
 Iteration     7 Dimension    30 NMult    28 NNew      2
 CISAX will form     2 AO SS matrices at one time.
 NMat=     2 NSing=     2 JSym2X=-1.
 Root      1 has converged.
 Root      2 not converged, maximum delta is    0.000002491342686
 Excitation Energies [eV] at current iteration:
 Root      1 :     3.879009191653609   Change is    0.000000000000000
 Root      2 :     8.362165842993241   Change is   -0.000000001698248
 Iteration     8 Dimension    32 NMult    30 NNew      2
 CISAX will form     2 AO SS matrices at one time.
 NMat=     2 NSing=     2 JSym2X=-1.
 Root      1 has converged.
 Root      2 has converged.
 Excitation Energies [eV] at current iteration:
 Root      1 :     3.879009191653609   Change is    0.000000000000000
 Root      2 :     8.362165842919008   Change is   -0.000000000074232
 Convergence achieved on expansion vectors.
 ***********************************************************************
 Excited states from <AA,BB:AA,BB> singles matrix:
 ***********************************************************************
 
 1PDM for each excited state written to RWF  633
 Ground to excited state transition densities written to RWF  633
 Ground to excited state transition electric dipole moments (Au):
       state          X           Y           Z        Dip. S.      Osc.
         1        -0.0000      0.0000     -0.0000      0.0000      0.0000
         2        -0.0000     -0.6475     -0.0000      0.4193      0.0859
 Ground to excited state transition velocity dipole moments (Au):
       state          X           Y           Z        Dip. S.      Osc.
         1        -0.0000     -0.0000      0.0000      0.0000      0.0000
         2         0.0000      0.1876      0.0000      0.0352      0.0763
 Ground to excited state transition magnetic dipole moments (Au):
       state          X           Y           Z
         1        -0.0000     -0.0000      1.2234
         2         0.9180     -0.0000      0.0000
 Ground to excited state transition velocity quadrupole moments (Au):
       state          XX          YY          ZZ          XY          XZ          YZ
         1        -0.0000     -0.0000     -0.0000     -0.0940     -0.0000      0.0000
         2         0.0000     -0.0000     -0.0000     -0.0000     -0.0000     -0.7413
 <0|del|b> * <b|rxdel|0> + <0|del|b> * <b|delr+rdel|0>
 Rotatory Strengths (R) in cgs (10**-40 erg-esu-cm/Gauss)
       state          XX          YY          ZZ    R(velocity)    E-M Angle
         1         0.0000      0.0000      0.0000      0.0000       90.00
         2        -0.0000      0.0000      0.0000      0.0000       90.00
 1/2[<0|r|b>*<b|rxdel|0> + (<0|rxdel|b>*<b|r|0>)*]
 Rotatory Strengths (R) in cgs (10**-40 erg-esu-cm/Gauss)
       state          XX          YY          ZZ     R(length)
         1        -0.0000      0.0000      0.0000      0.0000
         2         0.0000     -0.0000      0.0000      0.0000
  1/2[<0|del|b>*<b|r|0> + (<0|r|b>*<b|del|0>)*] (Au)
       state          X           Y           Z        Dip. S.   Osc.(frdel)
         1         0.0000     -0.0000     -0.0000      0.0000      0.0000
         2        -0.0000     -0.1215     -0.0000      0.1215      0.0810

 Excitation energies and oscillator strengths:
 
 Excited State   1:      Singlet-A2     3.8790 eV  319.63 nm  f=0.0000  <S**2>=0.000
       8 ->  9         0.70463
 This state for optimization and/or second-order correction.
 Total Energy, E(TD-HF/TD-DFT) =  -114.355214935    
 Copying the excited state density for this state as the 1-particle RhoCI density.
 
 Excited State   2:      Singlet-B2     8.3622 eV  148.27 nm  f=0.0859  <S**2>=0.000
       8 -> 10         0.68950
       8 -> 11         0.14828
 SavETr:  write IOETrn=   770 NScale= 10 NData=  16 NLR=1 NState=    2 LETran=      46.
 The selected state is a singlet.
 CISGrd: IGrad=2 NXY=2 DFT=T
 CISAX will form     1 AO SS matrices at one time.
 NMat=     1 NSing=     1 JSym2X=-1.
 Leave Link  914 at Thu Feb 22 03:19:34 2024, MaxMem=   104857600 cpu:               5.1 elap:               5.2
 (Enter /apps/gaussian/g16-c01-avx2/g16/l1002.exe)
 Minotr:  Closed shell wavefunction.
          Computing CIS/TDA/TD derivatives.
          Using Z-Vector for PSCF gradient.
          Skipping F1 and S1 gradient terms here.
          IDoAtm=1111
          Frozen-core window.
          Direct CPHF calculation.
          Differentiating once with respect to electric field.
                with respect to dipole field.
          Differentiating once with respect to nuclear coordinates.
          Requested convergence is 1.0D-10 RMS, and 1.0D-09 maximum.
          NewPWx=F KeepS1=T KeepF1=T KeepIn=T MapXYZ=F SortEE=F KeepMc=T.
 Keep R1 ints in memory in symmetry-blocked form, NReq=2577698.
 FoFCou: FMM=F IPFlag=           0 FMFlag=           0 FMFlg1=           0
         NFxFlg=           0 DoJE=F BraDBF=F KetDBF=F FulRan=T
         wScrn=  0.000000 ICntrl=       600 IOpCl=  0 I1Cent=           0 NGrid=           0
         NMat0=    1 NMatS0=   1275 NMatT0=    0 NMatD0=    1 NMtDS0=    0 NMtDT0=    0
 Petite list used in FoFCou.
 Two-electron integral symmetry used by symmetrizing perturbed Fock matrices.
          MDV=     104857600 using IRadAn=       5.
          Solving linear equations separately, MaxMat=       0.
          There are     1 degrees of freedom in the 1st order CPHF.  IDoFFX=0 NUNeed=     1.
 LinEq1:  Iter=  0 NonCon=     1 RMS=4.74D-02 Max=6.91D-01 NDo=     1
 AX will form     1 AO Fock derivatives at one time.
 LinEq1:  Iter=  1 NonCon=     1 RMS=1.06D-02 Max=7.26D-02 NDo=     1
 LinEq1:  Iter=  2 NonCon=     1 RMS=4.46D-03 Max=4.02D-02 NDo=     1
 LinEq1:  Iter=  3 NonCon=     1 RMS=1.20D-03 Max=7.87D-03 NDo=     1
 LinEq1:  Iter=  4 NonCon=     1 RMS=2.25D-04 Max=1.83D-03 NDo=     1
 LinEq1:  Iter=  5 NonCon=     1 RMS=3.01D-05 Max=2.17D-04 NDo=     1
 LinEq1:  Iter=  6 NonCon=     1 RMS=2.32D-06 Max=1.60D-05 NDo=     1
 LinEq1:  Iter=  7 NonCon=     1 RMS=2.89D-07 Max=2.06D-06 NDo=     1
 LinEq1:  Iter=  8 NonCon=     1 RMS=4.13D-08 Max=3.72D-07 NDo=     1
 LinEq1:  Iter=  9 NonCon=     1 RMS=3.03D-09 Max=2.22D-08 NDo=     1
 LinEq1:  Iter= 10 NonCon=     1 RMS=2.33D-10 Max=1.92D-09 NDo=     1
 LinEq1:  Iter= 11 NonCon=     0 RMS=1.88D-11 Max=1.25D-10 NDo=     1
 Linear equations converged to 1.000D-10 1.000D-09 after    11 iterations.
 End of Minotr F.D. properties file   721 does not exist.
 End of Minotr F.D. properties file   722 does not exist.
 End of Minotr F.D. properties file   788 does not exist.
 Leave Link 1002 at Thu Feb 22 03:19:37 2024, MaxMem=   104857600 cpu:               1.9 elap:               2.0
 (Enter /apps/gaussian/g16-c01-avx2/g16/l601.exe)
 Copying SCF densities to generalized density rwf, IOpCl= 0 IROHF=0.

 **********************************************************************

            Population analysis using the CI Density.

 **********************************************************************

 Orbital symmetries:
       Occupied  (A1) (A1) (A1) (A1) (B2) (A1) (B1) (B2)
       Virtual   (B1) (A1) (A1) (B2) (A1) (B1) (B2) (A1) (A1) (B2)
                 (B1) (A1) (B2) (A1) (A2) (A1) (A1) (B2) (B1) (B1)
                 (B2) (A1) (B2) (B1) (A2) (A1) (A1) (A1) (B2) (B1)
                 (A1) (B2) (A2) (A1) (A1) (B2) (A1) (B1) (B2) (A1)
                 (A1) (A1)
 The electronic state is 1-A1.
 Alpha  occ. eigenvalues --  -19.22336 -10.35265  -1.14518  -0.72276  -0.57397
 Alpha  occ. eigenvalues --   -0.52919  -0.47231  -0.34410
 Alpha virt. eigenvalues --   -0.00758   0.09458   0.14766   0.15421   0.24667
 Alpha virt. eigenvalues --    0.25025   0.29991   0.45776   0.48595   0.49352
 Alpha virt. eigenvalues --    0.55787   0.56737   0.66373   0.77915   1.22739
 Alpha virt. eigenvalues --    1.30009   1.33450   1.34173   1.37158   1.53643
 Alpha virt. eigenvalues --    1.70430   1.77526   1.78313   2.01848   2.14871
 Alpha virt. eigenvalues --    2.14955   2.28636   2.48856   2.51254   2.66171
 Alpha virt. eigenvalues --    2.69450   2.72665   2.75907   2.85954   3.02587
 Alpha virt. eigenvalues --    3.03775   3.21753   3.23789   3.57850   4.19281
 Alpha virt. eigenvalues --   21.93358  43.32537
          Condensed to atoms (all electrons):
               1          2          3          4
     1  C    5.307016   0.373684   0.373684   0.186297
     2  H    0.373684   0.528932  -0.044970  -0.030192
     3  H    0.373684  -0.044970   0.528932  -0.030192
     4  O    0.186297  -0.030192  -0.030192   7.978498
 Mulliken charges:
               1
     1  C   -0.240680
     2  H    0.172546
     3  H    0.172546
     4  O   -0.104411
 Sum of Mulliken charges =  -0.00000
 Mulliken charges with hydrogens summed into heavy atoms:
               1
     1  C    0.104411
     4  O   -0.104411
 Electronic spatial extent (au):  <R**2>=             61.5482
 Charge=             -0.0000 electrons
 Dipole moment (field-independent basis, Debye):
    X=              0.0000    Y=             -0.0000    Z=             -1.6819  Tot=              1.6819
 Quadrupole moment (field-independent basis, Debye-Ang):
   XX=            -13.9088   YY=            -10.3114   ZZ=            -11.9467
   XY=             -0.0000   XZ=             -0.0000   YZ=              0.0000
 Traceless Quadrupole moment (field-independent basis, Debye-Ang):
   XX=             -1.8532   YY=              1.7442   ZZ=              0.1089
   XY=             -0.0000   XZ=             -0.0000   YZ=              0.0000
 Octapole moment (field-independent basis, Debye-Ang**2):
  XXX=             -0.0000  YYY=             -0.0000  ZZZ=              0.4528  XYY=              0.0000
  XXY=              0.0000  XXZ=              2.1432  XZZ=             -0.0000  YZZ=             -0.0000
  YYZ=             -0.5251  XYZ=              0.0000
 Hexadecapole moment (field-independent basis, Debye-Ang**3):
 XXXX=            -16.3618 YYYY=            -16.2494 ZZZZ=            -45.6411 XXXY=             -0.0000
 XXXZ=              0.0000 YYYX=             -0.0000 YYYZ=              0.0000 ZZZX=              0.0000
 ZZZY=              0.0000 XXYY=             -5.8602 XXZZ=            -11.8753 YYZZ=             -8.3888
 XXYZ=             -0.0000 YYXZ=              0.0000 ZZXY=             -0.0000
 N-N= 3.109203084386D+01 E-N=-3.309391482046D+02  KE= 1.141252756723D+02
 Symmetry A1   KE= 1.036166502934D+02
 Symmetry A2   KE= 3.136482128914D-04
 Symmetry B1   KE= 5.841296533941D+00
 Symmetry B2   KE= 4.667015196687D+00
 No NMR shielding tensors so no spin-rotation constants.
 Leave Link  601 at Thu Feb 22 03:19:38 2024, MaxMem=   104857600 cpu:               0.1 elap:               0.1
 (Enter /apps/gaussian/g16-c01-avx2/g16/l701.exe)
 ... and contract with generalized density number  6.
 Compute integral first derivatives.
 Leave Link  701 at Thu Feb 22 03:19:38 2024, MaxMem=   104857600 cpu:               0.1 elap:               0.1
 (Enter /apps/gaussian/g16-c01-avx2/g16/l702.exe)
 L702 exits ... SP integral derivatives will be done elsewhere.
 Leave Link  702 at Thu Feb 22 03:19:39 2024, MaxMem=   104857600 cpu:               0.0 elap:               0.0
 (Enter /apps/gaussian/g16-c01-avx2/g16/l703.exe)
 Integral derivatives from FoFJK, PRISM(SPDF).
 Compute integral first derivatives, UseDBF=F ICtDFT=           0.
 Calling FoFJK, ICntrl=  10005127 FMM=F ISym2X=1 I1Cent= 0 IOpClX= 0 NMat=1 NMatS=1 NMatT=0.
 FoFJK:  IHMeth= 1 ICntrl=10005127 DoSepK=T KAlg= 0 I1Cent=           0 FoldK=F
 IRaf=         1 NMat=       1 IRICut=       1 DoRegI=T DoRafI=F ISym2E= 1 IDoP0=0 IntGTp=1.
 FoFCou: FMM=F IPFlag=           0 FMFlag=      100000 FMFlg1=         800
         NFxFlg=           0 DoJE=F BraDBF=F KetDBF=F FulRan=T
         wScrn=  0.000000 ICntrl=  10005527 IOpCl=  0 I1Cent=           0 NGrid=           0
         NMat0=    1 NMatS0=      1 NMatT0=    0 NMatD0=    1 NMtDS0=    0 NMtDT0=    0
 Petite list used in FoFCou.
 Leave Link  703 at Thu Feb 22 03:19:40 2024, MaxMem=   104857600 cpu:               0.4 elap:               0.4
 (Enter /apps/gaussian/g16-c01-avx2/g16/l716.exe)
 Dipole        = 2.58364273D-17-3.99915885D-16-6.61719278D-01
 ***** Axes restored to original set *****
 -------------------------------------------------------------------
 Center     Atomic                   Forces (Hartrees/Bohr)
 Number     Number              X              Y              Z
 -------------------------------------------------------------------
      1        6          -0.046095989   -0.079874151   -0.000000000
      2        1           0.002618400    0.004657802    0.000000000
      3        1           0.002722902    0.004597493   -0.000000000
      4        8           0.040754687    0.070618856   -0.000000000
 -------------------------------------------------------------------
 Cartesian Forces:  Max     0.079874151 RMS     0.035601720
 Leave Link  716 at Thu Feb 22 03:19:40 2024, MaxMem=   104857600 cpu:               0.0 elap:               0.0
 (Enter /apps/gaussian/g16-c01-avx2/g16/l103.exe)

 GradGradGradGradGradGradGradGradGradGradGradGradGradGradGradGradGradGrad
 Berny optimization.
 FormGI is forming the generalized inverse of G from B-inverse, IUseBI=4.
 Internal  Forces:  Max     0.081535068 RMS     0.030990129
 Search for a local minimum.
 Step number   1 out of a maximum of   20
 All quantities printed in internal units (Hartrees-Bohrs-Radians)
 RMS Force = .30990D-01 SwitMx=.10000D-02 MixMth= 1
 Mixed Optimization -- RFO/linear search
 Second derivative matrix not updated -- first step.
 The second derivative matrix:
                          R1        R2        R3        A1        A2
           R1           0.33556
           R2           0.00000   0.33556
           R3           0.00000   0.00000   0.96929
           A1           0.00000   0.00000   0.00000   0.16000
           A2           0.00000   0.00000   0.00000   0.00000   0.16000
           A3           0.00000   0.00000   0.00000   0.00000   0.00000
           D1           0.00000   0.00000   0.00000   0.00000   0.00000
                          A3        D1
           A3           0.16000
           D1           0.00000   0.04118
 ITU=  0
     Eigenvalues ---    0.04118   0.16000   0.16000   0.33556   0.33556
     Eigenvalues ---    0.96929
 RFO step:  Lambda=-7.20210596D-03 EMin= 4.11848468D-02
 Linear search not attempted -- first point.
 Iteration  1 RMS(Cart)=  0.02353384 RMS(Int)=  0.00020303
 Iteration  2 RMS(Cart)=  0.00020532 RMS(Int)=  0.00000001
 Iteration  3 RMS(Cart)=  0.00000001 RMS(Int)=  0.00000000
 ITry= 1 IFail=0 DXMaxC= 3.82D-02 DCOld= 1.00D+10 DXMaxT= 3.00D-01 DXLimC= 3.00D+00 Rises=F
 ClnCor:  largest displacement from symmetrization is 2.52D-09 for atom     1.
 Variable       Old X    -DE/DX   Delta X   Delta X   Delta X     New X
                                 (Linear)    (Quad)   (Total)
    R1        2.08086  -0.00294   0.00000  -0.00858  -0.00858   2.07228
    R2        2.08086  -0.00294   0.00000  -0.00858  -0.00858   2.07228
    R3        2.29894   0.08154   0.00000   0.08350   0.08350   2.38244
    A1        1.99855   0.00619   0.00000   0.03701   0.03701   2.03556
    A2        2.14232  -0.00309   0.00000  -0.01851  -0.01851   2.12381
    A3        2.14232  -0.00309   0.00000  -0.01851  -0.01851   2.12381
    D1        3.14159   0.00000   0.00000   0.00000   0.00000   3.14159
         Item               Value     Threshold  Converged?
 Maximum Force            0.081535     0.000450     NO 
 RMS     Force            0.030990     0.000300     NO 
 Maximum Displacement     0.038178     0.001800     NO 
 RMS     Displacement     0.023476     0.001200     NO 
 Predicted change in Energy=-3.634087D-03
 Lowest energy point so far.  Saving SCF results.
 GradGradGradGradGradGradGradGradGradGradGradGradGradGradGradGradGradGrad

 Leave Link  103 at Thu Feb 22 03:19:41 2024, MaxMem=   104857600 cpu:               0.0 elap:               0.0
 (Enter /apps/gaussian/g16-c01-avx2/g16/l202.exe)
                          Input orientation:                          
 ---------------------------------------------------------------------
 Center     Atomic      Atomic             Coordinates (Angstroms)
 Number     Number       Type             X           Y           Z
 ---------------------------------------------------------------------
      1          6           0       -0.512314   -0.386964    0.000000
      2          1           0        0.007994   -1.352273    0.000000
      3          1           0       -1.608438   -0.419417   -0.000000
      4          8           0        0.117855    0.704979   -0.000000
 ---------------------------------------------------------------------
                    Distance matrix (angstroms):
                    1          2          3          4
     1  C    0.000000
     2  H    1.096605   0.000000
     3  H    1.096605   1.866299   0.000000
     4  O    1.260734   2.060183   2.060183   0.000000
 Stoichiometry    CH2O
 Framework group  C2V[C2(CO),SGV(H2)]
 Deg. of freedom     3
 Full point group                 C2V     NOp   4
 RotChk:  IX=3 Diff= 4.02D-16
 Largest Abelian subgroup         C2V     NOp   4
 Largest concise Abelian subgroup C2      NOp   2
                         Standard orientation:                         
 ---------------------------------------------------------------------
 Center     Atomic      Atomic             Coordinates (Angstroms)
 Number     Number       Type             X           Y           Z
 ---------------------------------------------------------------------
      1          6           0       -0.000000   -0.000000   -0.558367
      2          1           0       -0.000000   -0.933150   -1.134365
      3          1           0        0.000000    0.933150   -1.134365
      4          8           0        0.000000    0.000000    0.702367
 ---------------------------------------------------------------------
 Rotational constants (GHZ):         287.9382943          35.9513688          31.9608095
 Leave Link  202 at Thu Feb 22 03:19:41 2024, MaxMem=   104857600 cpu:               0.0 elap:               0.0
 (Enter /apps/gaussian/g16-c01-avx2/g16/l301.exe)
 Standard basis: TZVP (5D, 7F)
 Ernie: Thresh=  0.10000D-02 Tol=  0.10000D-05 Strict=F.
 There are    27 symmetry adapted cartesian basis functions of A1  symmetry.
 There are     3 symmetry adapted cartesian basis functions of A2  symmetry.
 There are     9 symmetry adapted cartesian basis functions of B1  symmetry.
 There are    13 symmetry adapted cartesian basis functions of B2  symmetry.
 There are    25 symmetry adapted basis functions of A1  symmetry.
 There are     3 symmetry adapted basis functions of A2  symmetry.
 There are     9 symmetry adapted basis functions of B1  symmetry.
 There are    13 symmetry adapted basis functions of B2  symmetry.
    50 basis functions,    86 primitive gaussians,    52 cartesian basis functions
     8 alpha electrons        8 beta electrons
       nuclear repulsion energy        30.3313991092 Hartrees.
 IExCor=20419 DFT=T Ex+Corr=CAM-B3LYP ExCW=0 ScaHFX=  1.000000
 ScaDFX=  1.000000  1.000000  1.000000  0.810000 ScalE2=  1.000000  1.000000
 IRadAn=      5 IRanWt=     -1 IRanGd=            0 ICorTp=0 IEmpDi=  4
 HFx  wShort=  0.000000 wLong=  0.330000 cFull=  0.190000 cShort=  0.000000 cLong=  0.460000
 DFx  wShort=  0.000000 wLong=  0.330000 cFull=  0.190000 cShort=  0.000000 cLong=  0.460000
 NAtoms=    4 NActive=    4 NUniq=    3 SFac= 1.78D+00 NAtFMM=   60 NAOKFM=F Big=F
 Integral buffers will be    131072 words long.
 Raffenetti 1 integral format.
 Two-electron integral symmetry is turned on.
 Leave Link  301 at Thu Feb 22 03:19:41 2024, MaxMem=   104857600 cpu:               0.0 elap:               0.1
 (Enter /apps/gaussian/g16-c01-avx2/g16/l302.exe)
 NPDir=0 NMtPBC=     1 NCelOv=     1 NCel=       1 NClECP=     1 NCelD=      1
         NCelK=      1 NCelE2=     1 NClLst=     1 CellRange=     0.0.
 One-electron integrals computed using PRISM.
 One-electron integral symmetry used in STVInt
 NBasis=    50 RedAO= T EigKep=  5.39D-03  NBF=    25     3     9    13
 NBsUse=    50 1.00D-06 EigRej= -1.00D+00 NBFU=    25     3     9    13
 Precomputing XC quadrature grid using
 IXCGrd= 4 IRadAn=           5 IRanWt=          -1 IRanGd=           0 AccXCQ= 0.00D+00.
 Generated NRdTot=       0 NPtTot=           0 NUsed=           0 NTot=          32
 NSgBfM=    52    52    52    52    52 MxSgAt=     4 MxSgA2=     4.
 Leave Link  302 at Thu Feb 22 03:19:41 2024, MaxMem=   104857600 cpu:               0.1 elap:               0.1
 (Enter /apps/gaussian/g16-c01-avx2/g16/l303.exe)
 DipDrv:  MaxL=1.
 Leave Link  303 at Thu Feb 22 03:19:42 2024, MaxMem=   104857600 cpu:               0.0 elap:               0.0
 (Enter /apps/gaussian/g16-c01-avx2/g16/l308.exe)
 Leave Link  308 at Thu Feb 22 03:19:42 2024, MaxMem=   104857600 cpu:               0.0 elap:               0.0
 (Enter /apps/gaussian/g16-c01-avx2/g16/l401.exe)
 Initial guess from the checkpoint file:  "/rds/general/user/rk820/home/dibs-g16/fc_ht/formaldehyde/formaldehyde_es_CAM-B3LYP_freq.chk"
 B after Tr=     0.000000    0.000000   -0.000000
         Rot=    1.000000    0.000000    0.000000   -0.000000 Ang=   0.00 deg.
 Guess basis will be translated and rotated to current coordinates.
 JPrj=2 DoOrth=T DoCkMO=T.
 Initial guess orbital symmetries:
       Occupied  (A1) (A1) (A1) (A1) (B2) (A1) (B1) (B2)
       Virtual   (B1) (A1) (A1) (B2) (A1) (B1) (B2) (A1) (A1) (B2)
                 (B1) (A1) (B2) (A1) (A2) (A1) (A1) (B2) (B1) (B1)
                 (B2) (A1) (B2) (B1) (A2) (A1) (A1) (A1) (B2) (B1)
                 (A1) (B2) (A2) (A1) (A1) (B2) (A1) (B1) (B2) (A1)
                 (A1) (A1)
 The electronic state of the initial guess is 1-A1.
 Generating alternative initial guess.
 ExpMin= 9.52D-02 ExpMax= 2.70D+04 ExpMxC= 9.22D+02 IAcc=3 IRadAn=         5 AccDes= 0.00D+00
 Harris functional with IExCor=20419 and IRadAn=       5 diagonalized for initial guess.
 HarFok:  IExCor=20419 AccDes= 0.00D+00 IRadAn=         5 IDoV= 1 UseB2=F ITyADJ=14
 ICtDFT=  3500011 ScaDFX=  1.000000  1.000000  1.000000  1.000000
 FoFCou: FMM=F IPFlag=           0 FMFlag=      100000 FMFlg1=           0
         NFxFlg=           0 DoJE=T BraDBF=F KetDBF=T FulRan=T
         wScrn=  0.000000 ICntrl=       500 IOpCl=  0 I1Cent=   200000004 NGrid=           0
         NMat0=    1 NMatS0=      1 NMatT0=    0 NMatD0=    1 NMtDS0=    0 NMtDT0=    0
 Petite list used in FoFCou.
 Harris En= -110.522280386295    
 Leave Link  401 at Thu Feb 22 03:19:43 2024, MaxMem=   104857600 cpu:               0.2 elap:               0.3
 (Enter /apps/gaussian/g16-c01-avx2/g16/l502.exe)
 Keep R1 ints in memory in symmetry-blocked form, NReq=2575049.
 FoFCou: FMM=F IPFlag=           0 FMFlag=           0 FMFlg1=           0
         NFxFlg=           0 DoJE=F BraDBF=F KetDBF=F FulRan=T
         wScrn=  0.000000 ICntrl=       600 IOpCl=  0 I1Cent=           0 NGrid=           0
         NMat0=    1 NMatS0=   1275 NMatT0=    0 NMatD0=    1 NMtDS0=    0 NMtDT0=    0
 Petite list used in FoFCou.
 Closed shell SCF:
 Using DIIS extrapolation, IDIIS=  1040.
 NGot=   104857600 LenX=   104621700 LenY=   104618555
 Requested convergence on RMS density matrix=1.00D-08 within 128 cycles.
 Requested convergence on MAX density matrix=1.00D-06.
 Requested convergence on             energy=1.00D-06.
 No special actions if energy rises.
 Integral accuracy reduced to 1.0D-05 until final iterations.

 Cycle   1  Pass 0  IDiag  1:
 E= -114.491403433342    
 DIIS: error= 4.76D-03 at cycle   1 NSaved=   1.
 NSaved= 1 IEnMin= 1 EnMin= -114.491403433342     IErMin= 1 ErrMin= 4.76D-03
 ErrMax= 4.76D-03  0.00D+00 EMaxC= 1.00D-01 BMatC= 1.40D-03 BMatP= 1.40D-03
 IDIUse=3 WtCom= 9.52D-01 WtEn= 4.76D-02
 Coeff-Com:  0.100D+01
 Coeff-En:   0.100D+01
 Coeff:      0.100D+01
 Gap=     0.327 Goal=   None    Shift=    0.000
 GapD=    0.327 DampG=1.000 DampE=1.000 DampFc=1.0000 IDamp=-1.
 RMSDP=6.24D-04 MaxDP=6.44D-03              OVMax= 1.28D-02

 Cycle   2  Pass 0  IDiag  1:
 E= -114.492526684035     Delta-E=       -0.001123250693 Rises=F Damp=F
 DIIS: error= 2.68D-03 at cycle   2 NSaved=   2.
 NSaved= 2 IEnMin= 2 EnMin= -114.492526684035     IErMin= 2 ErrMin= 2.68D-03
 ErrMax= 2.68D-03  0.00D+00 EMaxC= 1.00D-01 BMatC= 3.49D-04 BMatP= 1.40D-03
 IDIUse=3 WtCom= 9.73D-01 WtEn= 2.68D-02
 Coeff-Com:  0.253D+00 0.747D+00
 Coeff-En:   0.000D+00 0.100D+01
 Coeff:      0.246D+00 0.754D+00
 Gap=     0.330 Goal=   None    Shift=    0.000
 RMSDP=3.91D-04 MaxDP=4.12D-03 DE=-1.12D-03 OVMax= 1.02D-02

 Cycle   3  Pass 0  IDiag  1:
 E= -114.492565249520     Delta-E=       -0.000038565485 Rises=F Damp=F
 DIIS: error= 3.09D-03 at cycle   3 NSaved=   3.
 NSaved= 3 IEnMin= 3 EnMin= -114.492565249520     IErMin= 2 ErrMin= 2.68D-03
 ErrMax= 3.09D-03  0.00D+00 EMaxC= 1.00D-01 BMatC= 3.02D-04 BMatP= 3.49D-04
 IDIUse=3 WtCom= 9.69D-01 WtEn= 3.09D-02
 Coeff-Com: -0.143D-01 0.483D+00 0.531D+00
 Coeff-En:   0.000D+00 0.461D+00 0.539D+00
 Coeff:     -0.139D-01 0.482D+00 0.532D+00
 Gap=     0.327 Goal=   None    Shift=    0.000
 RMSDP=2.02D-04 MaxDP=2.48D-03 DE=-3.86D-05 OVMax= 7.04D-03

 Cycle   4  Pass 0  IDiag  1:
 E= -114.492768246442     Delta-E=       -0.000202996922 Rises=F Damp=F
 DIIS: error= 5.11D-04 at cycle   4 NSaved=   4.
 NSaved= 4 IEnMin= 4 EnMin= -114.492768246442     IErMin= 4 ErrMin= 5.11D-04
 ErrMax= 5.11D-04  0.00D+00 EMaxC= 1.00D-01 BMatC= 1.15D-05 BMatP= 3.02D-04
 IDIUse=3 WtCom= 9.95D-01 WtEn= 5.11D-03
 Coeff-Com: -0.268D-01 0.132D+00 0.244D+00 0.650D+00
 Coeff-En:   0.000D+00 0.000D+00 0.000D+00 0.100D+01
 Coeff:     -0.267D-01 0.132D+00 0.243D+00 0.652D+00
 Gap=     0.328 Goal=   None    Shift=    0.000
 RMSDP=3.83D-05 MaxDP=4.70D-04 DE=-2.03D-04 OVMax= 1.20D-03

 Cycle   5  Pass 0  IDiag  1:
 E= -114.492777801139     Delta-E=       -0.000009554697 Rises=F Damp=F
 DIIS: error= 7.66D-05 at cycle   5 NSaved=   5.
 NSaved= 5 IEnMin= 5 EnMin= -114.492777801139     IErMin= 5 ErrMin= 7.66D-05
 ErrMax= 7.66D-05  0.00D+00 EMaxC= 1.00D-01 BMatC= 1.47D-07 BMatP= 1.15D-05
 IDIUse=1 WtCom= 1.00D+00 WtEn= 0.00D+00
 Coeff-Com:  0.300D-04-0.270D-01-0.118D-01 0.587D-01 0.980D+00
 Coeff:      0.300D-04-0.270D-01-0.118D-01 0.587D-01 0.980D+00
 Gap=     0.328 Goal=   None    Shift=    0.000
 RMSDP=1.45D-05 MaxDP=1.42D-04 DE=-9.55D-06 OVMax= 3.58D-04

 Cycle   6  Pass 0  IDiag  1:
 E= -114.492778045671     Delta-E=       -0.000000244532 Rises=F Damp=F
 DIIS: error= 9.07D-06 at cycle   6 NSaved=   6.
 NSaved= 6 IEnMin= 6 EnMin= -114.492778045671     IErMin= 6 ErrMin= 9.07D-06
 ErrMax= 9.07D-06  0.00D+00 EMaxC= 1.00D-01 BMatC= 3.38D-09 BMatP= 1.47D-07
 IDIUse=1 WtCom= 1.00D+00 WtEn= 0.00D+00
 Coeff-Com:  0.822D-03-0.671D-02-0.108D-01-0.215D-01 0.758D-01 0.962D+00
 Coeff:      0.822D-03-0.671D-02-0.108D-01-0.215D-01 0.758D-01 0.962D+00
 Gap=     0.328 Goal=   None    Shift=    0.000
 RMSDP=2.53D-06 MaxDP=2.22D-05 DE=-2.45D-07 OVMax= 5.39D-05

 Initial convergence to 1.0D-05 achieved.  Increase integral accuracy.
 Cycle   7  Pass 1  IDiag  1:
 E= -114.492778300465     Delta-E=       -0.000000254793 Rises=F Damp=F
 DIIS: error= 1.26D-06 at cycle   1 NSaved=   1.
 NSaved= 1 IEnMin= 1 EnMin= -114.492778300465     IErMin= 1 ErrMin= 1.26D-06
 ErrMax= 1.26D-06  0.00D+00 EMaxC= 1.00D-01 BMatC= 5.36D-11 BMatP= 5.36D-11
 IDIUse=1 WtCom= 1.00D+00 WtEn= 0.00D+00
 Coeff-Com:  0.100D+01
 Coeff:      0.100D+01
 Gap=     0.328 Goal=   None    Shift=    0.000
 RMSDP=2.53D-06 MaxDP=2.22D-05 DE=-2.55D-07 OVMax= 7.39D-06

 Cycle   8  Pass 1  IDiag  1:
 E= -114.492778300598     Delta-E=       -0.000000000133 Rises=F Damp=F
 DIIS: error= 6.21D-07 at cycle   2 NSaved=   2.
 NSaved= 2 IEnMin= 2 EnMin= -114.492778300598     IErMin= 2 ErrMin= 6.21D-07
 ErrMax= 6.21D-07  0.00D+00 EMaxC= 1.00D-01 BMatC= 1.78D-11 BMatP= 5.36D-11
 IDIUse=1 WtCom= 1.00D+00 WtEn= 0.00D+00
 Coeff-Com:  0.229D+00 0.771D+00
 Coeff:      0.229D+00 0.771D+00
 Gap=     0.328 Goal=   None    Shift=    0.000
 RMSDP=1.30D-07 MaxDP=1.29D-06 DE=-1.33D-10 OVMax= 2.51D-06

 Cycle   9  Pass 1  IDiag  1:
 E= -114.492778300604     Delta-E=       -0.000000000006 Rises=F Damp=F
 DIIS: error= 7.97D-07 at cycle   3 NSaved=   3.
 NSaved= 3 IEnMin= 3 EnMin= -114.492778300604     IErMin= 2 ErrMin= 6.21D-07
 ErrMax= 7.97D-07  0.00D+00 EMaxC= 1.00D-01 BMatC= 1.65D-11 BMatP= 1.78D-11
 IDIUse=1 WtCom= 1.00D+00 WtEn= 0.00D+00
 Coeff-Com: -0.855D-01 0.523D+00 0.562D+00
 Coeff:     -0.855D-01 0.523D+00 0.562D+00
 Gap=     0.328 Goal=   None    Shift=    0.000
 RMSDP=4.86D-08 MaxDP=6.74D-07 DE=-6.37D-12 OVMax= 2.00D-06

 Cycle  10  Pass 1  IDiag  1:
 E= -114.492778300617     Delta-E=       -0.000000000013 Rises=F Damp=F
 DIIS: error= 1.23D-07 at cycle   4 NSaved=   4.
 NSaved= 4 IEnMin= 4 EnMin= -114.492778300617     IErMin= 4 ErrMin= 1.23D-07
 ErrMax= 1.23D-07  0.00D+00 EMaxC= 1.00D-01 BMatC= 5.17D-13 BMatP= 1.65D-11
 IDIUse=1 WtCom= 1.00D+00 WtEn= 0.00D+00
 Coeff-Com: -0.508D-01 0.715D-01 0.188D+00 0.792D+00
 Coeff:     -0.508D-01 0.715D-01 0.188D+00 0.792D+00
 Gap=     0.328 Goal=   None    Shift=    0.000
 RMSDP=1.74D-08 MaxDP=1.68D-07 DE=-1.32D-11 OVMax= 3.21D-07

 Cycle  11  Pass 1  IDiag  1:
 E= -114.492778300618     Delta-E=       -0.000000000001 Rises=F Damp=F
 DIIS: error= 1.90D-08 at cycle   5 NSaved=   5.
 NSaved= 5 IEnMin= 5 EnMin= -114.492778300618     IErMin= 5 ErrMin= 1.90D-08
 ErrMax= 1.90D-08  0.00D+00 EMaxC= 1.00D-01 BMatC= 1.65D-14 BMatP= 5.17D-13
 IDIUse=1 WtCom= 1.00D+00 WtEn= 0.00D+00
 Coeff-Com: -0.654D-02-0.145D-01 0.166D-01 0.182D+00 0.823D+00
 Coeff:     -0.654D-02-0.145D-01 0.166D-01 0.182D+00 0.823D+00
 Gap=     0.328 Goal=   None    Shift=    0.000
 RMSDP=4.76D-09 MaxDP=4.91D-08 DE=-5.12D-13 OVMax= 8.99D-08

 SCF Done:  E(RCAM-B3LYP) =  -114.492778301     A.U. after   11 cycles
            NFock= 11  Conv=0.48D-08     -V/T= 2.0054
 KE= 1.138749912216D+02 PE=-3.295363342380D+02 EE= 7.083716560655D+01
 Leave Link  502 at Thu Feb 22 03:19:44 2024, MaxMem=   104857600 cpu:               0.8 elap:               0.8
 (Enter /apps/gaussian/g16-c01-avx2/g16/l801.exe)
 DoSCS=F DFT=T ScalE2(SS,OS)=  1.000000  1.000000
 ExpMin= 9.52D-02 ExpMax= 2.70D+04 ExpMxC= 9.22D+02 IAcc=3 IRadAn=         5 AccDes= 0.00D+00
 HarFok:  IExCor=  205 AccDes= 0.00D+00 IRadAn=         5 IDoV=-2 UseB2=F ITyADJ=14
 ICtDFT= 12500011 ScaDFX=  1.000000  1.000000  1.000000  1.000000
 Largest valence mixing into a core orbital is  5.52D-05
 Largest core mixing into a valence orbital is  7.70D-06
 Range of M.O.s used for correlation:     3    50
 NBasis=    50 NAE=     8 NBE=     8 NFC=     2 NFV=     0
 NROrb=     48 NOA=     6 NOB=     6 NVA=    42 NVB=    42
 Leave Link  801 at Thu Feb 22 03:19:44 2024, MaxMem=   104857600 cpu:               0.1 elap:               0.1
 (Enter /apps/gaussian/g16-c01-avx2/g16/l914.exe)
 RHF ground state
 Keep R1, R2, and R3 ints in memory in symmetry-blocked form, NReq=2619904.
 FoFCou: FMM=F IPFlag=           0 FMFlag=           0 FMFlg1=           0
         NFxFlg=           0 DoJE=F BraDBF=F KetDBF=F FulRan=T
         wScrn=  0.000000 ICntrl=       600 IOpCl=  0 I1Cent=           0 NGrid=           0
         NMat0=    1 NMatS0=   1275 NMatT0=    0 NMatD0=    1 NMtDS0=    0 NMtDT0=    0
 Petite list used in FoFCou.
 MDV=   104857600 DFT=T DoStab=F Mixed=T DoRPA=T DoScal=F NonHer=T
 Making orbital integer symmetry assigments:
 Orbital symmetries:
       Occupied  (A1) (A1) (A1) (A1) (B2) (A1) (B1) (B2)
       Virtual   (B1) (A1) (A1) (B2) (A1) (B1) (B2) (A1) (A1) (B2)
                 (A1) (B1) (B2) (A1) (A2) (A1) (A1) (B2) (B1) (B1)
                 (B2) (A1) (B2) (B1) (A1) (A2) (A1) (B2) (A1) (B1)
                 (A1) (B2) (A2) (A1) (A1) (B2) (B1) (A1) (B2) (A1)
                 (A1) (A1)
 Generating guess from densities on rwf.
 Convergence on wavefunction:    0.000001000000000
 Davidson Disk Diagonalization:  ConvIn= 1.00D-06 SkipCon=T Conv= 1.00D-06.
 Max sub-space:  1512 roots to seek:     2 dimension of matrix:          504
 Iteration     1 Dimension     4 NMult     0 NNew      4
 CISAX will form     4 AO SS matrices at one time.
 NMat=     4 NSing=     4 JSym2X=-1.
 Excitation Energies [eV] at current iteration:
 Root      1 :     3.638461662136106
 Root      2 :     8.428363383933039
 Iteration     2 Dimension     8 NMult     4 NNew      4
 CISAX will form     4 AO SS matrices at one time.
 NMat=     4 NSing=     4 JSym2X=-1.
 Root      1 not converged, maximum delta is    0.033658957911528
 Root      2 not converged, maximum delta is    0.034630566360969
 Excitation Energies [eV] at current iteration:
 Root      1 :     3.617048189348006   Change is   -0.021413472788100
 Root      2 :     8.410106532529602   Change is   -0.018256851403437
 Iteration     3 Dimension    12 NMult     8 NNew      4
 CISAX will form     4 AO SS matrices at one time.
 NMat=     4 NSing=     4 JSym2X=-1.
 Root      1 not converged, maximum delta is    0.002990771867735
 Root      2 not converged, maximum delta is    0.001268066798233
 Excitation Energies [eV] at current iteration:
 Root      1 :     3.616474978732124   Change is   -0.000573210615882
 Root      2 :     8.409871568355076   Change is   -0.000234964174527
 Iteration     4 Dimension    16 NMult    12 NNew      4
 CISAX will form     4 AO SS matrices at one time.
 NMat=     4 NSing=     4 JSym2X=-1.
 Root      1 not converged, maximum delta is    0.000406204539871
 Root      2 not converged, maximum delta is    0.001892962860470
 Excitation Energies [eV] at current iteration:
 Root      1 :     3.616466924696953   Change is   -0.000008054035172
 Root      2 :     8.409851069548939   Change is   -0.000020498806136
 Iteration     5 Dimension    20 NMult    16 NNew      4
 CISAX will form     4 AO SS matrices at one time.
 NMat=     4 NSing=     4 JSym2X=-1.
 Root      1 not converged, maximum delta is    0.000026298157360
 Root      2 not converged, maximum delta is    0.000657574872972
 Excitation Energies [eV] at current iteration:
 Root      1 :     3.616466882059037   Change is   -0.000000042637916
 Root      2 :     8.409847808221599   Change is   -0.000003261327340
 Iteration     6 Dimension    24 NMult    20 NNew      4
 CISAX will form     4 AO SS matrices at one time.
 NMat=     4 NSing=     4 JSym2X=-1.
 Root      1 not converged, maximum delta is    0.000001898989058
 Root      2 not converged, maximum delta is    0.000050305575418
 Excitation Energies [eV] at current iteration:
 Root      1 :     3.616466881594201   Change is   -0.000000000464836
 Root      2 :     8.409847638144198   Change is   -0.000000170077400
 Iteration     7 Dimension    28 NMult    24 NNew      4
 CISAX will form     4 AO SS matrices at one time.
 NMat=     4 NSing=     4 JSym2X=-1.
 Root      1 has converged.
 Root      2 not converged, maximum delta is    0.000006644461475
 Excitation Energies [eV] at current iteration:
 Root      1 :     3.616466881592837   Change is   -0.000000000001364
 Root      2 :     8.409847633538696   Change is   -0.000000004605503
 Iteration     8 Dimension    30 NMult    28 NNew      2
 CISAX will form     2 AO SS matrices at one time.
 NMat=     2 NSing=     2 JSym2X=-1.
 Root      1 has converged.
 Root      2 has converged.
 Excitation Energies [eV] at current iteration:
 Root      1 :     3.616466881592861   Change is    0.000000000000023
 Root      2 :     8.409847633453994   Change is   -0.000000000084702
 Convergence achieved on expansion vectors.
 ***********************************************************************
 Excited states from <AA,BB:AA,BB> singles matrix:
 ***********************************************************************
 
 1PDM for each excited state written to RWF  633
 Ground to excited state transition densities written to RWF  633
 Ground to excited state transition electric dipole moments (Au):
       state          X           Y           Z        Dip. S.      Osc.
         1         0.0000      0.0000     -0.0000      0.0000      0.0000
         2        -0.0000     -0.5622     -0.0000      0.3161      0.0651
 Ground to excited state transition velocity dipole moments (Au):
       state          X           Y           Z        Dip. S.      Osc.
         1        -0.0000     -0.0000     -0.0000      0.0000      0.0000
         2         0.0000      0.1619      0.0000      0.0262      0.0565
 Ground to excited state transition magnetic dipole moments (Au):
       state          X           Y           Z
         1        -0.0000      0.0000      1.2009
         2         0.9237     -0.0000      0.0000
 Ground to excited state transition velocity quadrupole moments (Au):
       state          XX          YY          ZZ          XY          XZ          YZ
         1        -0.0000      0.0000      0.0000     -0.0845      0.0000      0.0000
         2        -0.0000     -0.0000     -0.0000      0.0000     -0.0000     -0.6937
 <0|del|b> * <b|rxdel|0> + <0|del|b> * <b|delr+rdel|0>
 Rotatory Strengths (R) in cgs (10**-40 erg-esu-cm/Gauss)
       state          XX          YY          ZZ    R(velocity)    E-M Angle
         1        -0.0000     -0.0000      0.0000     -0.0000       90.00
         2        -0.0000      0.0000      0.0000      0.0000       90.00
 1/2[<0|r|b>*<b|rxdel|0> + (<0|rxdel|b>*<b|r|0>)*]
 Rotatory Strengths (R) in cgs (10**-40 erg-esu-cm/Gauss)
       state          XX          YY          ZZ     R(length)
         1         0.0000     -0.0000      0.0000      0.0000
         2         0.0000     -0.0000      0.0000      0.0000
  1/2[<0|del|b>*<b|r|0> + (<0|r|b>*<b|del|0>)*] (Au)
       state          X           Y           Z        Dip. S.   Osc.(frdel)
         1        -0.0000     -0.0000      0.0000      0.0000      0.0000
         2        -0.0000     -0.0910     -0.0000      0.0910      0.0607

 Excitation energies and oscillator strengths:
 
 Excited State   1:      Singlet-A2     3.6165 eV  342.83 nm  f=0.0000  <S**2>=0.000
       8 ->  9         0.70511
 This state for optimization and/or second-order correction.
 Total Energy, E(TD-HF/TD-DFT) =  -114.359875588    
 Copying the excited state density for this state as the 1-particle RhoCI density.
 
 Excited State   2:      Singlet-B2     8.4098 eV  147.43 nm  f=0.0651  <S**2>=0.000
       8 -> 10         0.68784
       8 -> 11         0.15608
 SavETr:  write IOETrn=   770 NScale= 10 NData=  16 NLR=1 NState=    2 LETran=      46.
 The selected state is a singlet.
 CISGrd: IGrad=2 NXY=2 DFT=T
 CISAX will form     1 AO SS matrices at one time.
 Spin AA IR=    1 I=  14 J=   2 Mu=   38 Nu=   12 IOp=3 MuP=    38 NuP=   -12
 Err= 2.62D-01 FactIJ= 1.0 Fact=-1.0
 A= 1.3097533002D-01 AP=-1.3097533002D-01 B= 1.3097533002D-01 BP=-1.3097533002D-01
 NMat=     1 NSing=     1 JSym2X= 2.
 Leave Link  914 at Thu Feb 22 03:19:49 2024, MaxMem=   104857600 cpu:               5.0 elap:               5.0
 (Enter /apps/gaussian/g16-c01-avx2/g16/l1002.exe)
 Minotr:  Closed shell wavefunction.
          Computing CIS/TDA/TD derivatives.
          Using Z-Vector for PSCF gradient.
          Skipping F1 and S1 gradient terms here.
          IDoAtm=1111
          Frozen-core window.
          Direct CPHF calculation.
          Differentiating once with respect to electric field.
                with respect to dipole field.
          Differentiating once with respect to nuclear coordinates.
          Requested convergence is 1.0D-10 RMS, and 1.0D-09 maximum.
          NewPWx=F KeepS1=T KeepF1=T KeepIn=T MapXYZ=F SortEE=F KeepMc=T.
 Keep R1 ints in memory in symmetry-blocked form, NReq=2577698.
 FoFCou: FMM=F IPFlag=           0 FMFlag=           0 FMFlg1=           0
         NFxFlg=           0 DoJE=F BraDBF=F KetDBF=F FulRan=T
         wScrn=  0.000000 ICntrl=       600 IOpCl=  0 I1Cent=           0 NGrid=           0
         NMat0=    1 NMatS0=   1275 NMatT0=    0 NMatD0=    1 NMtDS0=    0 NMtDT0=    0
 Petite list used in FoFCou.
 Two-electron integral symmetry used by symmetrizing perturbed Fock matrices.
          MDV=     104857600 using IRadAn=       5.
          Solving linear equations separately, MaxMat=       0.
          There are     1 degrees of freedom in the 1st order CPHF.  IDoFFX=0 NUNeed=     1.
 LinEq1:  Iter=  0 NonCon=     1 RMS=5.58D-02 Max=8.27D-01 NDo=     1
 AX will form     1 AO Fock derivatives at one time.
 LinEq1:  Iter=  1 NonCon=     1 RMS=1.14D-02 Max=6.50D-02 NDo=     1
 LinEq1:  Iter=  2 NonCon=     1 RMS=4.69D-03 Max=4.19D-02 NDo=     1
 LinEq1:  Iter=  3 NonCon=     1 RMS=1.37D-03 Max=9.26D-03 NDo=     1
 LinEq1:  Iter=  4 NonCon=     1 RMS=2.70D-04 Max=2.23D-03 NDo=     1
 LinEq1:  Iter=  5 NonCon=     1 RMS=3.54D-05 Max=2.38D-04 NDo=     1
 LinEq1:  Iter=  6 NonCon=     1 RMS=3.71D-06 Max=2.84D-05 NDo=     1
 LinEq1:  Iter=  7 NonCon=     1 RMS=5.86D-07 Max=3.95D-06 NDo=     1
 LinEq1:  Iter=  8 NonCon=     1 RMS=5.20D-08 Max=3.33D-07 NDo=     1
 LinEq1:  Iter=  9 NonCon=     1 RMS=3.24D-09 Max=2.51D-08 NDo=     1
 LinEq1:  Iter= 10 NonCon=     1 RMS=2.47D-10 Max=1.28D-09 NDo=     1
 LinEq1:  Iter= 11 NonCon=     0 RMS=2.71D-11 Max=1.69D-10 NDo=     1
 Linear equations converged to 1.000D-10 1.000D-09 after    11 iterations.
 End of Minotr F.D. properties file   721 does not exist.
 End of Minotr F.D. properties file   722 does not exist.
 End of Minotr F.D. properties file   788 does not exist.
 Leave Link 1002 at Thu Feb 22 03:19:51 2024, MaxMem=   104857600 cpu:               1.8 elap:               1.9
 (Enter /apps/gaussian/g16-c01-avx2/g16/l701.exe)
 ... and contract with generalized density number  6.
 Compute integral first derivatives.
 Leave Link  701 at Thu Feb 22 03:19:51 2024, MaxMem=   104857600 cpu:               0.1 elap:               0.1
 (Enter /apps/gaussian/g16-c01-avx2/g16/l702.exe)
 L702 exits ... SP integral derivatives will be done elsewhere.
 Leave Link  702 at Thu Feb 22 03:19:51 2024, MaxMem=   104857600 cpu:               0.0 elap:               0.0
 (Enter /apps/gaussian/g16-c01-avx2/g16/l703.exe)
 Integral derivatives from FoFJK, PRISM(SPDF).
 Compute integral first derivatives, UseDBF=F ICtDFT=           0.
 Calling FoFJK, ICntrl=  10005127 FMM=F ISym2X=1 I1Cent= 0 IOpClX= 0 NMat=1 NMatS=1 NMatT=0.
 FoFJK:  IHMeth= 1 ICntrl=10005127 DoSepK=T KAlg= 0 I1Cent=           0 FoldK=F
 IRaf=         1 NMat=       1 IRICut=       1 DoRegI=T DoRafI=F ISym2E= 1 IDoP0=0 IntGTp=1.
 FoFCou: FMM=F IPFlag=           0 FMFlag=      100000 FMFlg1=         800
         NFxFlg=           0 DoJE=F BraDBF=F KetDBF=F FulRan=T
         wScrn=  0.000000 ICntrl=  10005527 IOpCl=  0 I1Cent=           0 NGrid=           0
         NMat0=    1 NMatS0=      1 NMatT0=    0 NMatD0=    1 NMtDS0=    0 NMtDT0=    0
 Petite list used in FoFCou.
 Leave Link  703 at Thu Feb 22 03:19:52 2024, MaxMem=   104857600 cpu:               0.4 elap:               0.4
 (Enter /apps/gaussian/g16-c01-avx2/g16/l716.exe)
 Dipole        =-1.56771220D-13-1.03948264D-15-6.71243861D-01
 ***** Axes restored to original set *****
 -------------------------------------------------------------------
 Center     Atomic                   Forces (Hartrees/Bohr)
 Number     Number              X              Y              Z
 -------------------------------------------------------------------
      1        6          -0.017076938   -0.029590556    0.000000000
      2        1           0.002656221    0.004885011   -0.000000000
      3        1           0.002900708    0.004743916   -0.000000000
      4        8           0.011520010    0.019961628   -0.000000000
 -------------------------------------------------------------------
 Cartesian Forces:  Max     0.029590556 RMS     0.012111419
 Leave Link  716 at Thu Feb 22 03:19:52 2024, MaxMem=   104857600 cpu:               0.0 elap:               0.0
 (Enter /apps/gaussian/g16-c01-avx2/g16/l103.exe)

 GradGradGradGradGradGradGradGradGradGradGradGradGradGradGradGradGradGrad
 Berny optimization.
 Using GEDIIS/GDIIS optimizer.
 FormGI is forming the generalized inverse of G from B-inverse, IUseBI=4.
 Internal  Forces:  Max     0.023047282 RMS     0.009348194
 Search for a local minimum.
 Step number   2 out of a maximum of   20
 All quantities printed in internal units (Hartrees-Bohrs-Radians)
 RMS Force = .93482D-02 SwitMx=.10000D-02 MixMth= 1
 Mixed Optimization -- RFO/linear search
 Update second derivatives using D2CorX and points    1    2
 DE= -4.66D-03 DEPred=-3.63D-03 R= 1.28D+00
 TightC=F SS=  1.41D+00  RLast= 9.58D-02 DXNew= 5.0454D-01 2.8735D-01
 Trust test= 1.28D+00 RLast= 9.58D-02 DXMaxT set to 3.00D-01
 The second derivative matrix:
                          R1        R2        R3        A1        A2
           R1           0.33440
           R2          -0.00116   0.33440
           R3           0.03384   0.03384   0.75403
           A1           0.00238   0.00238  -0.07009   0.15510
           A2          -0.00119  -0.00119   0.03505   0.00245   0.15877
           A3          -0.00119  -0.00119   0.03505   0.00245  -0.00123
           D1           0.00000   0.00000   0.00000  -0.00000   0.00000
                          A3        D1
           A3           0.15877
           D1           0.00000   0.04118
 ITU=  1  0
 Use linear search instead of GDIIS.
     Eigenvalues ---    0.04118   0.14003   0.16000   0.32884   0.33556
     Eigenvalues ---    0.77106
 RFO step:  Lambda=-8.71949705D-04 EMin= 4.11848468D-02
 Quartic linear search produced a step of  0.60012.
 Iteration  1 RMS(Cart)=  0.02942442 RMS(Int)=  0.00095443
 Iteration  2 RMS(Cart)=  0.00094694 RMS(Int)=  0.00000018
 Iteration  3 RMS(Cart)=  0.00000016 RMS(Int)=  0.00000000
 ITry= 1 IFail=0 DXMaxC= 4.58D-02 DCOld= 1.00D+10 DXMaxT= 3.00D-01 DXLimC= 3.00D+00 Rises=F
 ClnCor:  largest displacement from symmetrization is 6.43D-11 for atom     1.
 Variable       Old X    -DE/DX   Delta X   Delta X   Delta X     New X
                                 (Linear)    (Quad)   (Total)
    R1        2.07228  -0.00304  -0.00515  -0.01159  -0.01674   2.05555
    R2        2.07228  -0.00304  -0.00515  -0.01159  -0.01674   2.05555
    R3        2.38244   0.02305   0.05011   0.00035   0.05046   2.43291
    A1        2.03556   0.00643   0.02221   0.05882   0.08104   2.11660
    A2        2.12381  -0.00322  -0.01111  -0.02941  -0.04052   2.08329
    A3        2.12381  -0.00322  -0.01111  -0.02941  -0.04052   2.08329
    D1        3.14159  -0.00000   0.00000  -0.00000   0.00000   3.14159
         Item               Value     Threshold  Converged?
 Maximum Force            0.023047     0.000450     NO 
 RMS     Force            0.009348     0.000300     NO 
 Maximum Displacement     0.045801     0.001800     NO 
 RMS     Displacement     0.029046     0.001200     NO 
 Predicted change in Energy=-7.382589D-04
 Lowest energy point so far.  Saving SCF results.
 GradGradGradGradGradGradGradGradGradGradGradGradGradGradGradGradGradGrad

 Leave Link  103 at Thu Feb 22 03:19:52 2024, MaxMem=   104857600 cpu:               0.0 elap:               0.0
 (Enter /apps/gaussian/g16-c01-avx2/g16/l202.exe)
                          Input orientation:                          
 ---------------------------------------------------------------------
 Center     Atomic      Atomic             Coordinates (Angstroms)
 Number     Number       Type             X           Y           Z
 ---------------------------------------------------------------------
      1          6           0       -0.526301   -0.411201    0.000000
      2          1           0        0.028168   -1.347022    0.000000
      3          1           0       -1.613984   -0.399323   -0.000000
      4          8           0        0.117215    0.703870   -0.000000
 ---------------------------------------------------------------------
                    Distance matrix (angstroms):
                    1          2          3          4
     1  C    0.000000
     2  H    1.087748   0.000000
     3  H    1.087748   1.895995   0.000000
     4  O    1.287438   2.052824   2.052824   0.000000
 Stoichiometry    CH2O
 Framework group  C2V[C2(CO),SGV(H2)]
 Deg. of freedom     3
 Full point group                 C2V     NOp   4
 RotChk:  IX=3 Diff= 3.74D-16
 Largest Abelian subgroup         C2V     NOp   4
 Largest concise Abelian subgroup C2      NOp   2
                         Standard orientation:                         
 ---------------------------------------------------------------------
 Center     Atomic      Atomic             Coordinates (Angstroms)
 Number     Number       Type             X           Y           Z
 ---------------------------------------------------------------------
      1          6           0       -0.000000    0.000000   -0.577046
      2          1           0       -0.000000   -0.947997   -1.110429
      3          1           0        0.000000    0.947997   -1.110429
      4          8           0        0.000000   -0.000000    0.710392
 ---------------------------------------------------------------------
 Rotational constants (GHZ):         278.9894339          35.1155714          31.1898035
 Leave Link  202 at Thu Feb 22 03:19:52 2024, MaxMem=   104857600 cpu:               0.0 elap:               0.0
 (Enter /apps/gaussian/g16-c01-avx2/g16/l301.exe)
 Standard basis: TZVP (5D, 7F)
 Ernie: Thresh=  0.10000D-02 Tol=  0.10000D-05 Strict=F.
 There are    27 symmetry adapted cartesian basis functions of A1  symmetry.
 There are     3 symmetry adapted cartesian basis functions of A2  symmetry.
 There are     9 symmetry adapted cartesian basis functions of B1  symmetry.
 There are    13 symmetry adapted cartesian basis functions of B2  symmetry.
 There are    25 symmetry adapted basis functions of A1  symmetry.
 There are     3 symmetry adapted basis functions of A2  symmetry.
 There are     9 symmetry adapted basis functions of B1  symmetry.
 There are    13 symmetry adapted basis functions of B2  symmetry.
    50 basis functions,    86 primitive gaussians,    52 cartesian basis functions
     8 alpha electrons        8 beta electrons
       nuclear repulsion energy        29.9709412362 Hartrees.
 IExCor=20419 DFT=T Ex+Corr=CAM-B3LYP ExCW=0 ScaHFX=  1.000000
 ScaDFX=  1.000000  1.000000  1.000000  0.810000 ScalE2=  1.000000  1.000000
 IRadAn=      5 IRanWt=     -1 IRanGd=            0 ICorTp=0 IEmpDi=  4
 HFx  wShort=  0.000000 wLong=  0.330000 cFull=  0.190000 cShort=  0.000000 cLong=  0.460000
 DFx  wShort=  0.000000 wLong=  0.330000 cFull=  0.190000 cShort=  0.000000 cLong=  0.460000
 NAtoms=    4 NActive=    4 NUniq=    3 SFac= 1.78D+00 NAtFMM=   60 NAOKFM=F Big=F
 Integral buffers will be    131072 words long.
 Raffenetti 1 integral format.
 Two-electron integral symmetry is turned on.
 Leave Link  301 at Thu Feb 22 03:19:52 2024, MaxMem=   104857600 cpu:               0.0 elap:               0.0
 (Enter /apps/gaussian/g16-c01-avx2/g16/l302.exe)
 NPDir=0 NMtPBC=     1 NCelOv=     1 NCel=       1 NClECP=     1 NCelD=      1
         NCelK=      1 NCelE2=     1 NClLst=     1 CellRange=     0.0.
 One-electron integrals computed using PRISM.
 One-electron integral symmetry used in STVInt
 NBasis=    50 RedAO= T EigKep=  5.45D-03  NBF=    25     3     9    13
 NBsUse=    50 1.00D-06 EigRej= -1.00D+00 NBFU=    25     3     9    13
 Precomputing XC quadrature grid using
 IXCGrd= 4 IRadAn=           5 IRanWt=          -1 IRanGd=           0 AccXCQ= 0.00D+00.
 Generated NRdTot=       0 NPtTot=           0 NUsed=           0 NTot=          32
 NSgBfM=    52    52    52    52    52 MxSgAt=     4 MxSgA2=     4.
 Leave Link  302 at Thu Feb 22 03:19:52 2024, MaxMem=   104857600 cpu:               0.1 elap:               0.1
 (Enter /apps/gaussian/g16-c01-avx2/g16/l303.exe)
 DipDrv:  MaxL=1.
 Leave Link  303 at Thu Feb 22 03:19:52 2024, MaxMem=   104857600 cpu:               0.0 elap:               0.0
 (Enter /apps/gaussian/g16-c01-avx2/g16/l308.exe)
 Leave Link  308 at Thu Feb 22 03:19:52 2024, MaxMem=   104857600 cpu:               0.0 elap:               0.0
 (Enter /apps/gaussian/g16-c01-avx2/g16/l401.exe)
 Initial guess from the checkpoint file:  "/rds/general/user/rk820/home/dibs-g16/fc_ht/formaldehyde/formaldehyde_es_CAM-B3LYP_freq.chk"
 B after Tr=     0.000000   -0.000000   -0.000000
         Rot=    1.000000   -0.000000    0.000000   -0.000000 Ang=   0.00 deg.
 Guess basis will be translated and rotated to current coordinates.
 JPrj=2 DoOrth=T DoCkMO=T.
 Initial guess orbital symmetries:
       Occupied  (A1) (A1) (A1) (A1) (B2) (A1) (B1) (B2)
[...]
          X                                                                     X                                                    
          X                                                                     X                                                    
          X                                                                     X                                                    
          X                                                                     X                                                    
                                                                                X                                                    
                                                                                X                                                    
                                                                                X                                                    
                                                                                X                                                    
                                                                                X                                                    
                                                                                X                                                    
                                                                                X                                                    
                                                                                X                                                    
                                                                                X                                                    
 
 ***** Axes restored to original set *****
 -------------------------------------------------------------------
 Center     Atomic                   Forces (Hartrees/Bohr)
 Number     Number              X              Y              Z
 -------------------------------------------------------------------
      1        6           0.000057245    0.000099192   -0.000000000
      2        1          -0.000014655    0.000031109   -0.000000000
      3        1           0.000034267    0.000002876    0.000000000
      4        8          -0.000076857   -0.000133176   -0.000000000
 -------------------------------------------------------------------
 Cartesian Forces:  Max     0.000133176 RMS     0.000057099
 -------------------------------------------------------------------
 Center     Atomic                Nonadiabatic Coup. (Bohr^-1)
 Number     Number              X              Y              Z
 -------------------------------------------------------------------
      1        6           0.000000000   -0.000000000   -0.000000000
      2        1          -0.000000000    0.000000000    0.330440044
      3        1          -0.000000000   -0.000000000   -0.330440044
      4        8           0.000000000   -0.000000000    0.000000000
 -------------------------------------------------------------------
 Cartesian Nonad. Coup.:  Max     0.330440044 RMS     0.134901583
 Force constants in Cartesian coordinates: 
                1             2             3             4             5 
      1  0.576198D+00
      2  0.522870D-01  0.636625D+00
      3  0.000000D+00  0.000000D+00 -0.167206D-01
      4 -0.116132D+00  0.123148D+00  0.000000D+00  0.121128D+00
      5  0.136309D+00 -0.231651D+00  0.000000D+00 -0.132606D+00  0.268881D+00
      6  0.000000D+00  0.000000D+00  0.594324D-02  0.000000D+00  0.000000D+00
      7 -0.315131D+00  0.213206D-01  0.000000D+00 -0.939467D-02 -0.384555D-02
      8  0.816005D-02 -0.326526D-01  0.000000D+00  0.231051D-01  0.173416D-02
      9  0.000000D+00  0.000000D+00  0.594323D-02  0.000000D+00  0.000000D+00
     10 -0.144936D+00 -0.196756D+00  0.000000D+00  0.439844D-02  0.142652D-03
     11 -0.196756D+00 -0.372321D+00  0.000000D+00 -0.136474D-01 -0.389639D-01
     12  0.000000D+00  0.000000D+00  0.483416D-02  0.000000D+00  0.000000D+00
                6             7             8             9            10 
      6 -0.209498D-02
      7  0.000000D+00  0.346785D+00
      8  0.000000D+00 -0.221383D-02  0.432244D-01
      9 -0.211200D-02  0.000000D+00  0.000000D+00 -0.209498D-02
     10  0.000000D+00 -0.222594D-01 -0.290513D-01  0.000000D+00  0.162797D+00
     11  0.000000D+00 -0.152612D-01 -0.123060D-01  0.000000D+00  0.225665D+00
     12 -0.173625D-02  0.000000D+00  0.000000D+00 -0.173625D-02  0.000000D+00
               11            12 
     11  0.423591D+00
     12  0.000000D+00 -0.136165D-02
 FormGI is forming the generalized inverse of G from B-inverse, IUseBI=4.
 Force constants in internal coordinates: 
                1             2             3             4             5 
      1  0.346771D+00
      2  0.172131D-02  0.346771D+00
      3  0.239089D-01  0.239089D-01  0.553824D+00
      4  0.507003D-02  0.507003D-02 -0.351017D-01  0.599534D-01
      5  0.112295D-01 -0.162995D-01  0.175509D-01 -0.299767D-01  0.630215D-01
      6 -0.162995D-01  0.112295D-01  0.175509D-01 -0.299767D-01 -0.330448D-01
      7  0.000000D+00  0.000000D+00  0.000000D+00  0.000000D+00  0.000000D+00
                6             7 
      6  0.630215D-01
      7  0.000000D+00 -0.684280D-02
 Leave Link  716 at Thu Feb 22 03:20:46 2024, MaxMem=   104857600 cpu:               0.0 elap:               0.0
 (Enter /apps/gaussian/g16-c01-avx2/g16/l103.exe)

 GradGradGradGradGradGradGradGradGradGradGradGradGradGradGradGradGradGrad
 Berny optimization.
 Red2BG is reusing G-inverse.
 Internal  Forces:  Max     0.000153763 RMS     0.000060966
 Search for a local minimum.
 Step number   1 out of a maximum of    2
 All quantities printed in internal units (Hartrees-Bohrs-Radians)
 Second derivative matrix not updated -- analytic derivatives used.
 The second derivative matrix:
                          R1        R2        R3        A1        A2
           R1           0.34677
           R2           0.00172   0.34677
           R3           0.02391   0.02391   0.55382
           A1           0.00507   0.00507  -0.03510   0.05995
           A2           0.01123  -0.01630   0.01755  -0.02998   0.06302
           A3          -0.01630   0.01123   0.01755  -0.02998  -0.03304
           D1           0.00000  -0.00000   0.00000  -0.00000   0.00000
                          A3        D1
           A3           0.06302
           D1           0.00000  -0.00684
 ITU=  0
     Eigenvalues ---   -0.00684   0.08544   0.09306   0.34398   0.34806
     Eigenvalues ---    0.56282
 Eigenvalue     1 is  -6.84D-03 should be greater than     0.000000 Eigenvector:
                          D1        R3        A3        R2        A1
   1                    1.00000  -0.00000   0.00000   0.00000  -0.00000
                          R1        A2
   1                    0.00000   0.00000
 Angle between quadratic step and forces=  13.52 degrees.
 Linear search not attempted -- first point.
 Iteration  1 RMS(Cart)=  0.00010185 RMS(Int)=  0.00000000
 Iteration  2 RMS(Cart)=  0.00000000 RMS(Int)=  0.00000000
 ITry= 1 IFail=0 DXMaxC= 1.77D-04 DCOld= 1.00D+10 DXMaxT= 3.00D-01 DXLimC= 3.00D+00 Rises=F
 Variable       Old X    -DE/DX   Delta X   Delta X   Delta X     New X
                                 (Linear)    (Quad)   (Total)
    R1        2.05729  -0.00003   0.00000  -0.00008  -0.00008   2.05721
    R2        2.05729  -0.00003   0.00000  -0.00008  -0.00008   2.05721
    R3        2.43126  -0.00015   0.00000  -0.00028  -0.00028   2.43098
    A1        2.12905   0.00000   0.00000  -0.00005  -0.00005   2.12901
    A2        2.07707  -0.00000   0.00000   0.00002   0.00002   2.07709
    A3        2.07707  -0.00000   0.00000   0.00002   0.00002   2.07709
    D1        3.14159   0.00000   0.00000   0.00000   0.00000   3.14159
         Item               Value     Threshold  Converged?
 Maximum Force            0.000154     0.000450     YES
 RMS     Force            0.000061     0.000300     YES
 Maximum Displacement     0.000177     0.001800     YES
 RMS     Displacement     0.000102     0.001200     YES
 Predicted change in Energy=-2.367567D-08
 Optimization completed.
    -- Stationary point found.
                           ----------------------------
                           !   Optimized Parameters   !
                           ! (Angstroms and Degrees)  !
 --------------------------                            --------------------------
 ! Name  Definition              Value          Derivative Info.                !
 --------------------------------------------------------------------------------
 ! R1    R(1,2)                  1.0887         -DE/DX =    0.0                 !
 ! R2    R(1,3)                  1.0887         -DE/DX =    0.0                 !
 ! R3    R(1,4)                  1.2866         -DE/DX =   -0.0002              !
 ! A1    A(2,1,3)              121.9858         -DE/DX =    0.0                 !
 ! A2    A(2,1,4)              119.0071         -DE/DX =    0.0                 !
 ! A3    A(3,1,4)              119.0071         -DE/DX =    0.0                 !
 ! D1    D(2,1,4,3)            180.0            -DE/DX =    0.0                 !
 --------------------------------------------------------------------------------
 GradGradGradGradGradGradGradGradGradGradGradGradGradGradGradGradGradGrad

 Leave Link  103 at Thu Feb 22 03:20:46 2024, MaxMem=   104857600 cpu:               0.0 elap:               0.0
 (Enter /apps/gaussian/g16-c01-avx2/g16/l9999.exe)
 -------------------------------------------------------------------
 Center     Atomic                Nonadiabatic Coup. (Bohr^-1)
 Number     Number              X              Y              Z
 -------------------------------------------------------------------
      1        6           0.000000000   -0.000000000   -0.000000000
      2        1          -0.000000000    0.000000000    0.330440044
      3        1          -0.000000000   -0.000000000   -0.330440044
      4        8           0.000000000   -0.000000000    0.000000000
 -------------------------------------------------------------------
 Cartesian Nonad. Coup.:  Max     0.330440044 RMS     0.134901583
 Electronic transition elements 
                 1             2 
      1  -0.114361D+03 -0.114180D+03
      2   0.000000D+00  0.407179D+00
      3   0.000000D+00 -0.234986D+00
      4   0.000000D+00  0.000000D+00
      5   0.000000D+00 -0.113336D+00
      6   0.000000D+00  0.654069D-01
      7   0.000000D+00  0.000000D+00
      8   0.594350D+00  0.000000D+00
      9   0.102988D+01  0.000000D+00
     10   0.000000D+00 -0.991890D+00
     11   0.000000D+00  0.548004D+00
     12   0.000000D+00 -0.548004D+00
     13   0.000000D+00  0.000000D+00
     14   0.000000D+00  0.316656D+00
     15  -0.690881D-01  0.000000D+00
     16   0.398713D-01  0.000000D+00
 Electronic Transition Derivatives 
                 1             2             3             4             5 
      1   0.000000D+00  0.000000D+00  0.000000D+00  0.000000D+00  0.000000D+00
      2   0.000000D+00  0.000000D+00 -0.486127D+00  0.000000D+00  0.000000D+00
      3   0.000000D+00  0.000000D+00  0.280548D+00  0.000000D+00  0.000000D+00
      4  -0.636103D+00  0.367100D+00  0.000000D+00 -0.193156D+00  0.111472D+00
      5   0.000000D+00  0.000000D+00 -0.130387D+00  0.000000D+00  0.000000D+00
      6   0.000000D+00  0.000000D+00  0.752473D-01  0.000000D+00  0.000000D+00
      7   0.313033D+00 -0.180654D+00  0.000000D+00  0.113968D-01 -0.657716D-02
      8   0.671686D+00 -0.311961D+00  0.000000D+00 -0.515705D+00  0.445130D+00
      9  -0.311961D+00  0.311162D+00  0.000000D+00  0.445130D+00 -0.128104D-02
     10   0.000000D+00  0.000000D+00 -0.642977D-03  0.000000D+00  0.000000D+00
     11   0.000000D+00  0.000000D+00  0.556670D-01  0.000000D+00  0.000000D+00
     12   0.000000D+00  0.000000D+00 -0.556670D-01  0.000000D+00  0.000000D+00
     13   0.000000D+00  0.000000D+00  0.000000D+00  0.000000D+00  0.000000D+00
     14   0.000000D+00  0.000000D+00  0.321663D-01  0.000000D+00  0.000000D+00
     15  -0.122981D+00 -0.203176D+00  0.000000D+00 -0.668978D-01 -0.620032D-01
     16   0.610512D-01  0.122980D+00  0.000000D+00 -0.153090D-01  0.668973D-01
                 6             7             8             9            10 
      1   0.000000D+00  0.000000D+00  0.000000D+00  0.000000D+00  0.000000D+00
      2  -0.244110D+00  0.000000D+00  0.000000D+00  0.865474D-01  0.000000D+00
      3   0.140878D+00  0.000000D+00  0.000000D+00 -0.499387D-01  0.000000D+00
      4   0.000000D+00  0.676692D-01 -0.596738D-01  0.000000D+00  0.855240D-01
      5   0.616490D-02  0.000000D+00  0.000000D+00 -0.218603D-02  0.000000D+00
      6  -0.355781D-02  0.000000D+00  0.000000D+00  0.126042D-02  0.000000D+00
      7   0.000000D+00 -0.408742D-02  0.116919D-02  0.000000D+00 -0.305733D-02
      8   0.000000D+00  0.885214D-01 -0.791823D-03  0.000000D+00  0.260308D-01
      9   0.000000D+00 -0.251608D-01 -0.983093D-02  0.000000D+00 -0.369012D-01
     10  -0.268316D+00  0.000000D+00  0.000000D+00 -0.782678D-01  0.000000D+00
     11  -0.325118D-01  0.000000D+00  0.000000D+00  0.347127D-01  0.000000D+00
     12   0.325118D-01  0.000000D+00  0.000000D+00  0.961976D-02  0.000000D+00
     13   0.000000D+00  0.000000D+00  0.000000D+00 -0.443314D-01  0.000000D+00
     14  -0.187865D-01  0.000000D+00  0.000000D+00 -0.183535D-01  0.000000D+00
     15   0.000000D+00 -0.394947D-02  0.236466D-02  0.000000D+00  0.144074D-01
     16   0.000000D+00  0.954746D-02 -0.110159D-01  0.000000D+00  0.367851D-02
                11            12            13            14            15 
      1   0.000000D+00  0.000000D+00  0.000000D+00  0.000000D+00  0.000000D+00
      2   0.000000D+00  0.865400D-01  0.000000D+00  0.000000D+00  0.710228D-01
      3   0.000000D+00 -0.499514D-01  0.000000D+00  0.000000D+00 -0.409878D-01
      4  -0.287353D-01  0.000000D+00  0.399628D-01 -0.230629D-01  0.000000D+00
      5   0.000000D+00 -0.218503D-02  0.000000D+00  0.000000D+00 -0.179384D-02
      6   0.000000D+00  0.126215D-02  0.000000D+00  0.000000D+00  0.103524D-02
      7   0.295410D-02  0.000000D+00 -0.425202D-02  0.245387D-02  0.000000D+00
      8  -0.612700D-01  0.000000D+00  0.401153D+00 -0.383068D+00  0.000000D+00
      9   0.526597D-01  0.000000D+00 -0.383068D+00 -0.415478D-01  0.000000D+00
     10   0.000000D+00 -0.782678D-01  0.000000D+00  0.000000D+00  0.424852D+00
     11   0.000000D+00 -0.318022D-01  0.000000D+00  0.000000D+00  0.296014D-01
     12   0.000000D+00 -0.125303D-01  0.000000D+00  0.000000D+00 -0.296014D-01
     13   0.000000D+00  0.443314D-01  0.000000D+00  0.000000D+00  0.000000D+00
     14   0.000000D+00  0.200353D-01  0.000000D+00  0.000000D+00  0.171047D-01
     15  -0.350445D-02  0.000000D+00  0.564398D-01  0.631430D-01  0.000000D+00
     16   0.558150D-03  0.000000D+00  0.208305D-02 -0.564396D-01  0.000000D+00

 ----------------------------------------------------------------------

 Electric dipole moment (input orientation):
 (Debye = 10**-18 statcoulomb cm , SI units = C m)
                  (au)            (Debye)         (10**-30 SI)
   Tot        0.655383D+00      0.166582D+01      0.555657D+01
   x         -0.327588D+00     -0.832646D+00     -0.277741D+01
   y         -0.567638D+00     -0.144279D+01     -0.481263D+01
   z          0.000000D+00      0.000000D+00      0.000000D+00

 Dipole polarizability, Alpha (input orientation).
 (esu units = cm**3 , SI units = C**2 m**2 J**-1)
 Alpha(0;0):
               (au)            (10**-24 esu)      (10**-40 SI)
   iso        0.153526D+02      0.227502D+01      0.253130D+01
   aniso      0.726948D+01      0.107723D+01      0.119858D+01
   xx         0.148261D+02      0.219700D+01      0.244449D+01
   yx         0.309979D+01      0.459342D+00      0.511087D+00
   yy         0.184084D+02      0.272784D+01      0.303514D+01
   zx         0.000000D+00      0.000000D+00      0.000000D+00
   zy         0.000000D+00      0.000000D+00      0.000000D+00
   zz         0.128232D+02      0.190021D+01      0.211427D+01

 ----------------------------------------------------------------------

 Dipole orientation:
     6         -0.40967521          0.23642673          1.17490112
     1          1.14865991         -0.66290051          2.17251692
     1         -1.96801033          1.13575396          2.17251692
     8         -0.40967521          0.23642673         -1.25635525

 Electric dipole moment (dipole orientation):
 (Debye = 10**-18 statcoulomb cm , SI units = C m)
                  (au)            (Debye)         (10**-30 SI)
   Tot        0.655383D+00      0.166582D+01      0.555657D+01
   x          0.000000D+00      0.000000D+00      0.000000D+00
   y          0.000000D+00      0.000000D+00      0.000000D+00
   z          0.655383D+00      0.166582D+01      0.555657D+01

 Dipole polarizability, Alpha (dipole orientation).
 (esu units = cm**3 , SI units = C**2 m**2 J**-1)
 Alpha(0;0):
               (au)            (10**-24 esu)      (10**-40 SI)
   iso        0.153526D+02      0.227502D+01      0.253130D+01
   aniso      0.726948D+01      0.107723D+01      0.119858D+01
   xx         0.129837D+02      0.192399D+01      0.214072D+01
   yx        -0.926032D-01     -0.137224D-01     -0.152682D-01
   yy         0.128767D+02      0.190813D+01      0.212308D+01
   zx         0.000000D+00      0.000000D+00      0.000000D+00
   zy         0.000000D+00      0.000000D+00      0.000000D+00
   zz         0.201973D+02      0.299293D+01      0.333009D+01

 ----------------------------------------------------------------------
 Unable to Open any file for archive entry.
 1\1\GINC-CX3-7-2\Freq\RCAM-B3LYP TD-FC\TZVP\C1H2O1\RK820\22-Feb-2024\0
 \\#P Geom=AllCheck Guess=TCheck SCRF=Check GenChk RCAM-B3LYP TD(FC,Rea
 d)/TZVP Freq\\HF/STO-3G for formaldehyde, calculating the first two ex
 cited states and optimizing its geometry, followed by a vibrational an
 alysis.\\0,1\C,-0.5275582695,-0.4133796622,0.\H,0.0332025708,-1.346519
 4278,0.\H,-1.6160682961,-0.3947124759,0.\O,0.1155217468,0.700935729,0.
 \\Version=ES64L-G16RevC.01\State=1-A1\HF=-114.4876966\RMSD=2.192e-09\R
 MSF=5.710e-05\ZeroPoint=0.0225189\Thermal=0.0254241\ETot=-114.3354974\
 HTot=-114.3345532\GTot=-114.3595197\Dipole=-0.3275881,-0.5676377,0.\Di
 poleDeriv=0.0920988,-0.0590803,0.,-0.0590803,0.0238214,0.,0.,0.,-0.509
 4518,0.0645777,0.0267424,0.,0.0289515,0.1736054,0.,0.,0.,0.2761759,0.1
 221878,0.0622407,0.,0.0600316,0.1159953,0.,0.,0.,0.2761759,-0.2788644,
 -0.0299028,0.,-0.0299028,-0.3134221,0.,0.,0.,-0.0428999\Polar=14.82606
 18,3.0997927,18.4084024,0.,0.,12.8232445\Quadrupole=1.0419883,0.305854
 6,-1.3478429,-0.6369751,0.,0.\PG=C02V [C2(C1O1),SGV(H2)]\NImag=1\\0.57
 619819,0.05228697,0.63662473,0.,0.,-0.01672062,-0.11613197,0.12314850,
 0.,0.12112820,0.13630905,-0.23165116,0.,-0.13260615,0.26888089,0.,0.,0
 .00594324,0.,0.,-0.00209498,-0.31513055,0.02132061,0.,-0.00939467,-0.0
 0384555,0.,0.34678467,0.00816005,-0.03265259,0.,0.02310507,0.00173416,
 0.,-0.00221383,0.04322442,0.,0.,0.00594323,0.,0.,-0.00211200,0.,0.,-0.
 00209498,-0.14493568,-0.19675608,0.,0.00439844,0.00014265,0.,-0.022259
 45,-0.02905129,0.,0.16279669,-0.19675607,-0.37232098,0.,-0.01364741,-0
 .03896389,0.,-0.01526122,-0.01230600,0.,0.22566471,0.42359086,0.,0.,0.
 00483416,0.,0.,-0.00173625,0.,0.,-0.00173625,0.,0.,-0.00136165\\-0.000
 05724,-0.00009919,0.,0.00001465,-0.00003111,0.,-0.00003427,-0.00000288
 ,0.,0.00007686,0.00013318,0.\\\@
 The archive entry for this job was punched.


 A COMPLEXITY IS MERELY A DISARRANGEMENT OF SIMPLICITIES.

                                    -- G. O. ABELL IN "EXPLORATION OF THE UNIVERSE"
 Job cpu time:       0 days  0 hours  0 minutes 18.9 seconds.
 Elapsed time:       0 days  0 hours  0 minutes 19.2 seconds.
 File lengths (MBytes):  RWF=     41 Int=      0 D2E=      0 Chk=     16 Scr=      1
 Normal termination of Gaussian 16 at Thu Feb 22 03:20:46 2024.
