HF/STO-3G for formaldehyde, calculating the first two excited states and
Freq      RCAM-B3LYP TD-FC                                            TZVP                
Number of atoms                            I                4
Info1-9                                    I   N=           9
           9           9        1002           0           0         100
           6         218        4001
Full Title                                 C   N=          12
HF/STO-3G for formaldehyde, calculating the first two excite
d states and optimizing its geometry, followed by a vibratio
nal analysis.           
Route                                      C   N=           6
#p CAM-B3LYP/TZVP TD=(nstates=2) geom=check Density=Current 
opt freq    
Charge                                     I                0
Multiplicity                               I                1
Number of electrons                        I               16
Number of alpha electrons                  I                8
Number of beta electrons                   I                8
Number of basis functions                  I               50
Number of independent functions            I               50
Number of point charges in /Mol/           I                0
Number of translation vectors              I                0
Atomic numbers                             I   N=           4
           6           1           1           8
Nuclear charges                            R   N=           4
  6.00000000E+00  1.00000000E+00  1.00000000E+00  8.00000000E+00
Current cartesian coordinates              R   N=          12
 -7.39557099E-32 -2.19500102E-17 -1.09092621E+00  0.00000000E+00 -1.79922145E+00
 -2.08854201E+00  2.20341079E-16  1.79922145E+00 -2.08854201E+00 -9.86076132E-32
  8.37985503E-18  1.34033016E+00
Number of symbols in /Mol/                 I                0
Int Atom Types                             I   N=           4
           0           0           0           0
Force Field                                I                0
Atom Types                                 C   N=           4
                                                
MM charges                                 R   N=           4
  0.00000000E+00  0.00000000E+00  0.00000000E+00  0.00000000E+00
Integer atomic weights                     I   N=           4
          12           1           1          16
Real atomic weights                        R   N=           4
  1.20000000E+01  1.00782504E+00  1.00782504E+00  1.59949146E+01
Atom fragment info                         I   N=           4
           0           0           0           0
Atom residue num                           I   N=           4
           0           0           0           0
Nuclear spins                              I   N=           4
           0           1           1           0
Nuclear ZEff                               R   N=           4
 -3.60000000E+00 -1.00000000E+00 -1.00000000E+00 -5.60000000E+00
Nuclear ZNuc                               R   N=           4
  6.00000000E+00  1.00000000E+00  1.00000000E+00  8.00000000E+00
Nuclear QMom                               R   N=           4
  0.00000000E+00  0.00000000E+00  0.00000000E+00  0.00000000E+00
Nuclear GFac                               R   N=           4
  0.00000000E+00  2.79284600E+00  2.79284600E+00  0.00000000E+00
MicOpt                                     I   N=           4
          -1          -1          -1          -1
Number of residues                         I                0
Number of secondary structures             I                0
Redundant internal dimensions              I   N=           4
           7           3           3           1
Redundant internal coordinate indices      I   N=          28
           1           2           0           0           1           3
           0           0           1           4           0           0
           2           1           3           0           2           1
           4           0           3           1           4           0
           2           1           4           3
Redundant internal coordinates             R   N=           7
  2.05728829E+00  2.05728829E+00  2.43125637E+00  2.12905420E+00  2.07706555E+00
  2.07706555E+00  3.14159265E+00
ZRed-IntVec                                I   N=           7
           0           0           0           0           0           0
           0
ZRed-FPVec                                 R   N=           7
  0.00000000E+00  0.00000000E+00  0.00000000E+00  0.00000000E+00  0.00000000E+00
  0.00000000E+00  0.00000000E+00
ZRed-Constraint1                           R   N=           7
  2.05728829E+00  2.05728829E+00  2.43125637E+00  2.12905420E+00  2.07706555E+00
  2.07706555E+00  3.14159265E+00
ZRed-Constraint2                           R   N=           7
  2.08086221E+00  2.08086221E+00  2.29894453E+00  1.99854786E+00  2.14231872E+00
  2.14231872E+00  3.14159265E+00
SymInf integers                            I   N=          26
           2           4           1           1           1          -1
          -1           1          -1           1           1           1
          -1           1           0           0           0           0
           0           0           0           0           0           0
           0           0
RotTr to input orientation                 R   N=          12
  1.29163074E-15 -9.57502849E-16 -1.00000000E+00 -8.66116354E-01  4.99842436E-01
 -1.59730307E-15  4.99842436E-01  8.66116354E-01 -1.83697020E-16 -4.51649430E-01
  1.63694686E-01 -1.60957532E-16
Number of contracted shells                I               26
Number of primitive shells                 I               48
Pure/Cartesian d shells                    I                0
Pure/Cartesian f shells                    I                0
Highest angular momentum                   I                2
Largest degree of contraction              I                6
Shell types                                I   N=          26
           0           0           0           0           0           1
           1           1          -2           0           0           0
           1           0           0           0           1           0
           0           0           0           0           1           1
           1          -2
Number of primitives per shell             I   N=          26
           6           2           1           1           1           4
           1           1           1           3           1           1
           1           3           1           1           1           6
           2           1           1           1           4           1
           1           1
Shell to atom map                          I   N=          26
           1           1           1           1           1           1
           1           1           1           2           2           2
           2           3           3           3           3           4
           4           4           4           4           4           4
           4           4
Primitive exponents                        R   N=          48
  1.35753497E+04  2.03523337E+03  4.63225624E+02  1.31200196E+02  4.28530159E+01
  1.55841858E+01  6.20671385E+00  2.57648965E+00  5.76963390E-01  2.29728310E-01
  9.51644400E-02  3.46972322E+01  7.95826228E+00  2.37808269E+00  8.14332080E-01
  2.88875470E-01  1.00568240E-01  8.00000000E-01  3.40613410E+01  5.12357460E+00
  1.16466260E+00  3.27230410E-01  1.03072410E-01  8.00000000E-01  3.40613410E+01
  5.12357460E+00  1.16466260E+00  3.27230410E-01  1.03072410E-01  8.00000000E-01
  2.70323826E+04  4.05238714E+03  9.22327227E+02  2.61240710E+02  8.53546413E+01
  3.10350352E+01  1.22608607E+01  4.99870760E+00  1.17031082E+00  4.64747410E-01
  1.85045360E-01  6.32749548E+01  1.46270494E+01  4.45012235E+00  1.52757996E+00
  5.29351180E-01  1.74784210E-01  1.20000000E+00
Contraction coefficients                   R   N=          48
  6.06460097E-04  4.69789846E-03  2.43324735E-02  9.73999560E-02  3.01955844E-01
  6.62336101E-01  6.55953080E-01  3.75856339E-01  1.00000000E+00  1.00000000E+00
  1.00000000E+00  1.13272290E-02  7.61696612E-02  3.01922515E-01  7.27850278E-01
  1.00000000E+00  1.00000000E+00  1.00000000E+00  2.54393072E-02  1.90085949E-01
  8.52441130E-01  1.00000000E+00  1.00000000E+00  1.00000000E+00  2.54393072E-02
  1.90085949E-01  8.52441130E-01  1.00000000E+00  1.00000000E+00  1.00000000E+00
  5.72265385E-04  4.43533331E-03  2.30201034E-02  9.28224938E-02  2.93784997E-01
  6.74016046E-01  6.38399375E-01  3.95345866E-01  1.00000000E+00  1.00000000E+00
  1.00000000E+00  1.20183316E-02  8.30054304E-02  3.19917439E-01  7.07155426E-01
  1.00000000E+00  1.00000000E+00  1.00000000E+00
Coordinates of each shell                  R   N=          78
  0.00000000E+00 -2.19500102E-17 -1.09092621E+00  0.00000000E+00 -2.19500102E-17
 -1.09092621E+00  0.00000000E+00 -2.19500102E-17 -1.09092621E+00  0.00000000E+00
 -2.19500102E-17 -1.09092621E+00  0.00000000E+00 -2.19500102E-17 -1.09092621E+00
  0.00000000E+00 -2.19500102E-17 -1.09092621E+00  0.00000000E+00 -2.19500102E-17
 -1.09092621E+00  0.00000000E+00 -2.19500102E-17 -1.09092621E+00  0.00000000E+00
 -2.19500102E-17 -1.09092621E+00  0.00000000E+00 -1.79922145E+00 -2.08854201E+00
  0.00000000E+00 -1.79922145E+00 -2.08854201E+00  0.00000000E+00 -1.79922145E+00
 -2.08854201E+00  0.00000000E+00 -1.79922145E+00 -2.08854201E+00  2.20341079E-16
  1.79922145E+00 -2.08854201E+00  2.20341079E-16  1.79922145E+00 -2.08854201E+00
  2.20341079E-16  1.79922145E+00 -2.08854201E+00  2.20341079E-16  1.79922145E+00
 -2.08854201E+00 -9.86076132E-32  8.37985503E-18  1.34033016E+00 -9.86076132E-32
  8.37985503E-18  1.34033016E+00 -9.86076132E-32  8.37985503E-18  1.34033016E+00
 -9.86076132E-32  8.37985503E-18  1.34033016E+00 -9.86076132E-32  8.37985503E-18
  1.34033016E+00 -9.86076132E-32  8.37985503E-18  1.34033016E+00 -9.86076132E-32
  8.37985503E-18  1.34033016E+00 -9.86076132E-32  8.37985503E-18  1.34033016E+00
 -9.86076132E-32  8.37985503E-18  1.34033016E+00
Num ILSW                                   I              100
ILSW                                       I   N=         100
           0           0           0           0           2           0
           0           0           0           0       20419          -1
           5           0           0           0           2           0
           0           0           0           0           1           0
           1           0           0           0           0           0
           0           0      100000           0          -1           0
           0           0           0           0           0           0
           0           0           0           1           0           0
           0 -2000000000           1           0           0           0
           0           1           4          52           0           0
           0           0          40           0           0           0
           0           0           0           4           0           1
           0           0           0           0           0           0
           0           0           0           0           0           0
           0           0           0           0           0           0
           0           0           0           0           0           0
           0           0           0           0
Num RLSW                                   I               52
RLSW                                       R   N=          52
  1.00000000E+00  1.00000000E+00  1.00000000E+00  8.10000000E-01  1.00000000E+00
  0.00000000E+00  3.30000000E-01  1.90000000E-01  0.00000000E+00  4.60000000E-01
  0.00000000E+00  3.30000000E-01  1.90000000E-01  0.00000000E+00  4.60000000E-01
  0.00000000E+00  0.00000000E+00  1.00000000E+00  0.00000000E+00  0.00000000E+00
  0.00000000E+00  0.00000000E+00  1.00000000E+00  0.00000000E+00  0.00000000E+00
  0.00000000E+00  0.00000000E+00  1.00000000E+00  0.00000000E+00  0.00000000E+00
  0.00000000E+00  0.00000000E+00  1.00000000E+00  0.00000000E+00  0.00000000E+00
  0.00000000E+00  0.00000000E+00  0.00000000E+00  1.00000000E+00  1.00000000E+00
  0.00000000E+00  1.00000000E+00  0.00000000E+00  0.00000000E+00  0.00000000E+00
  0.00000000E+00  0.00000000E+00  0.00000000E+00  0.00000000E+00  0.00000000E+00
  0.00000000E+00  0.00000000E+00
MxBond                                     I                3
NBond                                      I   N=           4
           3           1           1           1
IBond                                      I   N=          12
           2           3           4           1           0           0
           1           0           0           1           0           0
RBond                                      R   N=          12
  1.00000000E+00  1.00000000E+00  2.00000000E+00  1.00000000E+00  0.00000000E+00
  0.00000000E+00  1.00000000E+00  0.00000000E+00  0.00000000E+00  2.00000000E+00
  0.00000000E+00  0.00000000E+00
Virial Ratio                               R      2.005797319500977E+00
SCF Energy                                 R     -1.144876966020751E+02
CIS Energy                                 R     -1.143609214521659E+02
Total Energy                               R     -1.143609214521659E+02
Post-SCF wavefunction norm                 R      1.000000000000000E+00
RMS Force                                  R      5.709936372728755E-05
RMS Density                                R      2.192326408719995E-09
NImag                                      I                1
Job Status                                 I                1
Nuclear derivative order                   I                2
Thermal Energy                             R     -1.143354973550036E+02
Thermal Enthalpy                           R     -1.143345531701900E+02
Thermal Free Energy                        R     -1.143595196774341E+02
External E-field                           R   N=          35
  0.00000000E+00  0.00000000E+00  0.00000000E+00  0.00000000E+00  0.00000000E+00
  0.00000000E+00  0.00000000E+00  0.00000000E+00  0.00000000E+00  0.00000000E+00
  0.00000000E+00  0.00000000E+00  0.00000000E+00  0.00000000E+00  0.00000000E+00
  0.00000000E+00  0.00000000E+00  0.00000000E+00  0.00000000E+00  0.00000000E+00
  0.00000000E+00  0.00000000E+00  0.00000000E+00  0.00000000E+00  0.00000000E+00
  0.00000000E+00  0.00000000E+00  0.00000000E+00  0.00000000E+00  0.00000000E+00
  0.00000000E+00  0.00000000E+00  0.00000000E+00  0.00000000E+00  0.00000000E+00
IOpCl                                      I                0
IROHF                                      I                0
Alpha Orbital Energies                     R   N=          50
 -1.92237089E+01 -1.03593544E+01 -1.10890762E+00 -7.30297454E-01 -5.76750179E-01
 -5.13500540E-01 -4.49467996E-01 -3.46626155E-01 -2.40517936E-02  9.40673679E-02
  1.45081948E-01  1.47105320E-01  2.33009635E-01  2.51198971E-01  3.10991150E-01
  4.45617012E-01  4.79117945E-01  5.07268784E-01  5.15994713E-01  5.57695612E-01
  6.59261956E-01  7.75549134E-01  1.21167481E+00  1.28699761E+00  1.31757653E+00
  1.32365011E+00  1.38452774E+00  1.52224214E+00  1.67226287E+00  1.77480052E+00
  1.81487527E+00  1.98146204E+00  2.12239148E+00  2.20383206E+00  2.24670228E+00
  2.50887099E+00  2.54683942E+00  2.66420033E+00  2.70646632E+00  2.74100182E+00
  2.74889817E+00  2.77493915E+00  3.00923175E+00  3.04725357E+00  3.14123584E+00
  3.24193592E+00  3.44665066E+00  4.09535402E+00  2.18324510E+01  4.33097869E+01
Alpha MO coefficients                      R   N=        2500
  2.00619472E-05 -1.45489272E-04  3.48173321E-04  5.10228065E-04 -5.31087959E-03
  0.00000000E+00  0.00000000E+00  5.04656216E-04  0.00000000E+00  0.00000000E+00
  7.55839549E-04  0.00000000E+00  0.00000000E+00 -2.53679235E-03  4.78693943E-04
  0.00000000E+00  0.00000000E+00 -1.22997636E-04  0.00000000E+00  4.66524168E-05
 -2.35448089E-04  5.08065331E-04  0.00000000E+00 -1.04694283E-04 -2.24893396E-04
  4.66524168E-05 -2.35448089E-04  5.08065331E-04  0.00000000E+00  1.04694283E-04
 -2.24893396E-04  4.35306126E-01  6.39576430E-01  3.39118752E-02 -2.18804012E-02
  1.30542411E-02  0.00000000E+00  0.00000000E+00 -1.71722732E-03  0.00000000E+00
  0.00000000E+00  2.35799913E-03  0.00000000E+00  0.00000000E+00 -2.64034887E-03
 -2.18825977E-04  0.00000000E+00  0.00000000E+00 -5.41637659E-06  0.00000000E+00
  4.67023831E-01  6.08736533E-01  3.55011357E-02 -2.24028970E-02  1.06057449E-02
  0.00000000E+00  0.00000000E+00  4.67368731E-04  0.00000000E+00  0.00000000E+00
 -7.23178325E-04  0.00000000E+00  0.00000000E+00 -2.09503588E-03  6.93662127E-04
  0.00000000E+00  0.00000000E+00 -7.39712776E-04  0.00000000E+00 -1.94301579E-04
  5.63162246E-04 -3.17238525E-03  0.00000000E+00 -1.12079162E-03 -5.10514372E-04
 -1.94301579E-04  5.63162246E-04 -3.17238525E-03  0.00000000E+00  1.12079162E-03
 -5.10514372E-04 -5.10448688E-05 -1.83306845E-04  1.25811616E-03 -2.32754653E-03
  3.77246502E-03  0.00000000E+00  0.00000000E+00 -4.04554894E-04  0.00000000E+00
  0.00000000E+00  1.60593942E-03  0.00000000E+00  0.00000000E+00 -2.80230650E-03
 -7.83660980E-04  0.00000000E+00  0.00000000E+00  2.96178107E-05  0.00000000E+00
 -5.30879330E-02 -1.11409292E-01  1.89289810E-01  1.22291848E-01  3.57802482E-02
  0.00000000E+00  0.00000000E+00  1.23975898E-01  0.00000000E+00  0.00000000E+00
  5.71907116E-02  0.00000000E+00  0.00000000E+00  1.46302347E-03  2.13738533E-02
  0.00000000E+00  0.00000000E+00  4.87858748E-04  0.00000000E+00  1.93465137E-02
  2.06410615E-02 -6.06202926E-03  0.00000000E+00  4.51285201E-03  4.62730191E-03
  1.93465137E-02  2.06410615E-02 -6.06202926E-03  0.00000000E+00 -4.51285201E-03
  4.62730191E-03 -9.10952091E-02 -2.13796945E-01  3.13988414E-01  4.11124204E-01
  1.22271351E-01  0.00000000E+00  0.00000000E+00 -1.10224887E-01  0.00000000E+00
  0.00000000E+00 -8.81926954E-02  0.00000000E+00  0.00000000E+00  1.06382247E-03
  1.59558330E-02  0.00000000E+00  0.00000000E+00  2.82657179E-03  0.00000000E+00
 -8.22054389E-02 -1.74955154E-01  2.95384355E-01  3.11541725E-01  8.08368599E-02
  0.00000000E+00  0.00000000E+00 -1.44579668E-01  0.00000000E+00  0.00000000E+00
 -8.80915349E-02  0.00000000E+00  0.00000000E+00 -3.38453473E-02 -6.43055864E-03
  0.00000000E+00  0.00000000E+00 -1.14054268E-02  0.00000000E+00  1.11713077E-01
  1.37590513E-01  2.24710913E-02  0.00000000E+00  1.77636694E-02  5.60787130E-03
  1.11713077E-01  1.37590513E-01  2.24710913E-02  0.00000000E+00 -1.77636694E-02
  5.60787130E-03  4.23926762E-02  1.00497076E-01 -1.55668053E-01 -2.04803232E-01
 -1.37745413E-01  0.00000000E+00  0.00000000E+00 -7.42714923E-02  0.00000000E+00
  0.00000000E+00 -5.21382546E-02  0.00000000E+00  0.00000000E+00 -2.08537847E-02
  4.56073436E-03  0.00000000E+00  0.00000000E+00 -1.16191081E-03  0.00000000E+00
  0.00000000E+00  0.00000000E+00  0.00000000E+00  0.00000000E+00  0.00000000E+00
  0.00000000E+00  3.32801261E-01  0.00000000E+00  0.00000000E+00  2.37837459E-01
  0.00000000E+00  0.00000000E+00  7.55258182E-02  0.00000000E+00  0.00000000E+00
  0.00000000E+00 -4.75953785E-03  0.00000000E+00  0.00000000E+00 -1.31012193E-01
 -1.70282397E-01 -5.95522598E-02  0.00000000E+00 -1.22700236E-02 -9.79937497E-03
  1.31012193E-01  1.70282397E-01  5.95522598E-02  0.00000000E+00 -1.22700236E-02
  9.79937497E-03  0.00000000E+00  0.00000000E+00  0.00000000E+00  0.00000000E+00
  0.00000000E+00  0.00000000E+00  1.78613325E-01  0.00000000E+00  0.00000000E+00
  1.45531804E-01  0.00000000E+00  0.00000000E+00  6.10060380E-02  0.00000000E+00
  0.00000000E+00  0.00000000E+00 -1.67241528E-02  0.00000000E+00  0.00000000E+00
  1.32133937E-02  2.92125742E-02 -6.00196758E-02 -7.03696260E-02  4.57686066E-02
  0.00000000E+00  0.00000000E+00 -2.76533544E-01  0.00000000E+00  0.00000000E+00
 -2.02619678E-01  0.00000000E+00  0.00000000E+00 -3.18187367E-02 -2.10950694E-02
  0.00000000E+00  0.00000000E+00 -7.42398921E-03  0.00000000E+00  5.21440941E-02
  7.05391423E-02  3.13428405E-02  0.00000000E+00  6.78600348E-03 -4.34375778E-03
  5.21440941E-02  7.05391423E-02  3.13428405E-02  0.00000000E+00 -6.78600348E-03
 -4.34375778E-03 -3.53340107E-02 -8.39718839E-02  1.29674964E-01  1.79783960E-01
  2.32802463E-01  0.00000000E+00  0.00000000E+00  3.87091679E-01  0.00000000E+00
  0.00000000E+00  2.81601504E-01  0.00000000E+00  0.00000000E+00  1.42154052E-01
 -2.16819821E-02  0.00000000E+00  0.00000000E+00  1.00789158E-03  0.00000000E+00
  0.00000000E+00  0.00000000E+00  0.00000000E+00  0.00000000E+00  0.00000000E+00
  2.59922647E-01  0.00000000E+00  0.00000000E+00  2.29740342E-01  0.00000000E+00
  0.00000000E+00  1.09359688E-01  0.00000000E+00  0.00000000E+00  0.00000000E+00
  3.04942073E-02  0.00000000E+00  0.00000000E+00  0.00000000E+00  0.00000000E+00
  0.00000000E+00  0.00000000E+00  8.01149818E-03  0.00000000E+00  0.00000000E+00
  0.00000000E+00  0.00000000E+00  0.00000000E+00  8.01149818E-03  0.00000000E+00
  0.00000000E+00  0.00000000E+00  0.00000000E+00  0.00000000E+00  0.00000000E+00
  0.00000000E+00  3.73436682E-01  0.00000000E+00  0.00000000E+00  3.11665114E-01
  0.00000000E+00  0.00000000E+00  1.91583685E-01  0.00000000E+00  0.00000000E+00
  0.00000000E+00 -2.60399550E-02  0.00000000E+00  0.00000000E+00  0.00000000E+00
  0.00000000E+00  0.00000000E+00  0.00000000E+00  0.00000000E+00  0.00000000E+00
  0.00000000E+00 -1.06068921E-01  0.00000000E+00  0.00000000E+00 -4.46590158E-02
  0.00000000E+00  0.00000000E+00  7.71216976E-02  0.00000000E+00  0.00000000E+00
  0.00000000E+00  4.51059138E-02  0.00000000E+00  0.00000000E+00  8.76582582E-02
  1.90901215E-01  1.82101676E-01  0.00000000E+00  7.45869208E-03  4.25056344E-03
 -8.76582582E-02 -1.90901215E-01 -1.82101676E-01  0.00000000E+00  7.45869208E-03
 -4.25056344E-03  0.00000000E+00  0.00000000E+00  0.00000000E+00  0.00000000E+00
  0.00000000E+00  0.00000000E+00  4.50536435E-01  0.00000000E+00  0.00000000E+00
  3.71935618E-01  0.00000000E+00  0.00000000E+00  2.81997334E-01  0.00000000E+00
  0.00000000E+00  0.00000000E+00 -1.40567378E-02  0.00000000E+00  0.00000000E+00
  0.00000000E+00  0.00000000E+00  0.00000000E+00  0.00000000E+00  0.00000000E+00
  3.43406640E-01  0.00000000E+00  0.00000000E+00  3.28365786E-01  0.00000000E+00
  0.00000000E+00  5.13702482E-01  0.00000000E+00  0.00000000E+00  0.00000000E+00
 -2.89687738E-02  0.00000000E+00  0.00000000E+00  0.00000000E+00  0.00000000E+00
  0.00000000E+00  0.00000000E+00  2.50539426E-02  0.00000000E+00  0.00000000E+00
  0.00000000E+00  0.00000000E+00  0.00000000E+00  2.50539426E-02  0.00000000E+00
  0.00000000E+00  0.00000000E+00  0.00000000E+00  0.00000000E+00  0.00000000E+00
  0.00000000E+00 -3.21102240E-01  0.00000000E+00  0.00000000E+00 -2.47459737E-01
  0.00000000E+00  0.00000000E+00 -4.11519423E-01  0.00000000E+00  0.00000000E+00
  0.00000000E+00 -3.69790976E-03  0.00000000E+00  0.00000000E+00  0.00000000E+00
 -4.81876623E-02 -1.03176414E-01  1.66510976E-01  4.33670157E-01  2.13006501E+00
  0.00000000E+00  0.00000000E+00 -1.36992791E-01  0.00000000E+00  0.00000000E+00
 -1.20522718E-01  0.00000000E+00  0.00000000E+00 -6.63601996E-01  8.09654051E-03
  0.00000000E+00  0.00000000E+00  2.41459646E-02  0.00000000E+00 -4.87293435E-02
  8.71212781E-02 -1.86325659E+00  0.00000000E+00  2.72544009E-02  6.65262159E-03
 -4.87293435E-02  8.71212781E-02 -1.86325659E+00  0.00000000E+00 -2.72544009E-02
  6.65262159E-03 -1.31867157E-03 -3.58392254E-03  1.34905711E-02 -3.18131011E-02
  1.25004276E-01  0.00000000E+00  0.00000000E+00  4.62679359E-02  0.00000000E+00
  0.00000000E+00  5.19999706E-02  0.00000000E+00  0.00000000E+00 -1.57666782E-04
  1.33498561E-03  0.00000000E+00  0.00000000E+00  3.01597125E-03  0.00000000E+00
  1.44055384E-02  3.06356145E-02 -3.96024327E-02 -2.48080327E-01 -1.49411484E+00
  0.00000000E+00  0.00000000E+00 -4.85246882E-02  0.00000000E+00  0.00000000E+00
 -9.56908666E-02  0.00000000E+00  0.00000000E+00 -1.74956442E+00  5.14631457E-02
  0.00000000E+00  0.00000000E+00  5.47802319E-03  0.00000000E+00  5.86274749E-03
 -9.53319342E-03 -1.32938151E-02  0.00000000E+00  1.03008299E-02 -1.38195254E-02
  5.86274749E-03 -9.53319342E-03 -1.32938151E-02  0.00000000E+00 -1.03008299E-02
 -1.38195254E-02 -3.23122649E-02 -8.33309509E-02  2.17926488E-01 -1.93888784E-01
  2.05070834E+00  0.00000000E+00  0.00000000E+00 -9.37874389E-02  0.00000000E+00
  0.00000000E+00 -4.85508258E-02  0.00000000E+00  0.00000000E+00 -5.86485509E-01
  4.51138282E-03  0.00000000E+00  0.00000000E+00  8.89861525E-04  0.00000000E+00
  0.00000000E+00  0.00000000E+00  0.00000000E+00  0.00000000E+00  0.00000000E+00
  0.00000000E+00  2.66445943E-01  0.00000000E+00  0.00000000E+00  2.22088407E-01
  0.00000000E+00  0.00000000E+00  1.60042865E+00  0.00000000E+00  0.00000000E+00
  0.00000000E+00  2.15247307E-02  0.00000000E+00  0.00000000E+00  1.57134392E-02
 -2.20630191E-01  2.49349721E+00  0.00000000E+00 -2.48062856E-02 -2.10758374E-02
 -1.57134392E-02  2.20630191E-01 -2.49349721E+00  0.00000000E+00 -2.48062856E-02
  2.10758374E-02  0.00000000E+00  0.00000000E+00  0.00000000E+00  0.00000000E+00
  0.00000000E+00  0.00000000E+00 -7.12357683E-02  0.00000000E+00  0.00000000E+00
 -1.90863156E-02  0.00000000E+00  0.00000000E+00 -2.97692885E-01  0.00000000E+00
  0.00000000E+00  0.00000000E+00 -1.00476282E-02  0.00000000E+00  0.00000000E+00
  1.36133237E-02  1.78977022E-02  1.86625656E-01 -1.43734929E+00  5.42484707E+00
  0.00000000E+00  0.00000000E+00  5.90301474E-03  0.00000000E+00  0.00000000E+00
  1.84013471E-01  0.00000000E+00  0.00000000E+00 -1.22778579E+00 -2.21559522E-03
  0.00000000E+00  0.00000000E+00  4.82966772E-02  0.00000000E+00 -6.02126763E-02
 -3.66105270E-01 -1.91358676E+00  0.00000000E+00  2.33119674E-02 -6.63457105E-03
 -6.02126763E-02 -3.66105270E-01 -1.91358676E+00  0.00000000E+00 -2.33119674E-02
 -6.63457105E-03  9.46401805E-03  2.40569956E-02 -5.94100530E-02  3.99021819E-02
 -4.97219530E-01  0.00000000E+00  0.00000000E+00 -2.04743213E-02  0.00000000E+00
  0.00000000E+00 -6.57567934E-02  0.00000000E+00  0.00000000E+00  2.42286947E-01
 -4.86473847E-03  0.00000000E+00  0.00000000E+00  7.57065966E-03  0.00000000E+00
  0.00000000E+00  0.00000000E+00  0.00000000E+00  0.00000000E+00  0.00000000E+00
 -3.03250999E-01  0.00000000E+00  0.00000000E+00 -7.86248111E-01  0.00000000E+00
  0.00000000E+00  1.33064753E+00  0.00000000E+00  0.00000000E+00  0.00000000E+00
 -9.50863885E-03  0.00000000E+00  0.00000000E+00  0.00000000E+00  0.00000000E+00
  0.00000000E+00  0.00000000E+00  1.23603595E-03  0.00000000E+00  0.00000000E+00
  0.00000000E+00  0.00000000E+00  0.00000000E+00  1.23603595E-03  0.00000000E+00
  0.00000000E+00  0.00000000E+00  0.00000000E+00  0.00000000E+00  0.00000000E+00
  0.00000000E+00  2.37300644E-03  0.00000000E+00  0.00000000E+00  2.11292604E-02
  0.00000000E+00  0.00000000E+00 -1.13190236E-01  0.00000000E+00  0.00000000E+00
  0.00000000E+00  1.27803591E-02  0.00000000E+00  0.00000000E+00  0.00000000E+00
  0.00000000E+00  0.00000000E+00  0.00000000E+00  0.00000000E+00  0.00000000E+00
  0.00000000E+00 -5.07367400E-02  0.00000000E+00  0.00000000E+00 -5.15004272E-01
  0.00000000E+00  0.00000000E+00  4.15023481E+00  0.00000000E+00  0.00000000E+00
  0.00000000E+00  2.68273637E-02  0.00000000E+00  0.00000000E+00  2.05260308E-02
  2.12218187E-01  2.86963446E+00  0.00000000E+00 -1.31549954E-02 -3.23954439E-02
 -2.05260308E-02 -2.12218187E-01 -2.86963446E+00  0.00000000E+00 -1.31549954E-02
  3.23954439E-02  0.00000000E+00  0.00000000E+00  0.00000000E+00  0.00000000E+00
  0.00000000E+00  0.00000000E+00 -1.81248201E-01  0.00000000E+00  0.00000000E+00
 -1.43564920E-01  0.00000000E+00  0.00000000E+00 -5.44737123E-01  0.00000000E+00
  0.00000000E+00  0.00000000E+00  1.67755171E-03  0.00000000E+00  0.00000000E+00
  6.59987445E-02  1.39090527E-01 -1.83417556E-03 -2.70899307E+00  2.87296632E+00
  0.00000000E+00  0.00000000E+00 -1.85187018E-01  0.00000000E+00  0.00000000E+00
 -5.60734431E-01  0.00000000E+00  0.00000000E+00 -1.54882973E-02  1.50083664E-02
  0.00000000E+00  0.00000000E+00 -2.42003891E-03  0.00000000E+00  5.52939180E-02
  6.77824161E-01 -1.40656488E+00  0.00000000E+00  9.61699760E-03  4.74867495E-03
  5.52939180E-02  6.77824161E-01 -1.40656488E+00  0.00000000E+00 -9.61699760E-03
  4.74867495E-03 -3.23109327E-02 -7.36286895E-02  5.35117594E-02  5.38014708E-01
  1.34220127E-01  0.00000000E+00  0.00000000E+00 -1.18522460E-01  0.00000000E+00
  0.00000000E+00 -5.68976657E-02  0.00000000E+00  0.00000000E+00 -1.33679921E+00
 -2.35948683E-02  0.00000000E+00  0.00000000E+00  1.11338695E-03  0.00000000E+00
  2.80422589E-02  6.18500359E-02 -7.13842459E-03 -9.33180062E-01  3.80774961E+00
  0.00000000E+00  0.00000000E+00  3.26658009E-01  0.00000000E+00  0.00000000E+00
  1.16637636E+00  0.00000000E+00  0.00000000E+00 -1.35278247E+00 -1.01843788E-03
  0.00000000E+00  0.00000000E+00 -3.59059425E-03  0.00000000E+00  8.98827214E-02
  1.12485243E+00 -2.29546351E+00  0.00000000E+00  1.57502254E-02  3.50177064E-02
  8.98827214E-02  1.12485243E+00 -2.29546351E+00  0.00000000E+00 -1.57502254E-02
  3.50177064E-02  1.50797233E-02  3.32280556E-02 -1.97124127E-03 -3.49170724E-01
 -1.69728048E-01  0.00000000E+00  0.00000000E+00  4.38283162E-02  0.00000000E+00
  0.00000000E+00  6.68361149E-02  0.00000000E+00  0.00000000E+00  7.34175862E-01
  7.97796505E-03  0.00000000E+00  0.00000000E+00 -1.65264636E-03  0.00000000E+00
  0.00000000E+00  0.00000000E+00  0.00000000E+00  0.00000000E+00  0.00000000E+00
  0.00000000E+00 -3.67635379E-01  0.00000000E+00  0.00000000E+00 -1.27606905E+00
  0.00000000E+00  0.00000000E+00  1.08221658E+00  0.00000000E+00  0.00000000E+00
  0.00000000E+00 -4.17508188E-03  0.00000000E+00  0.00000000E+00 -9.17769703E-02
 -1.43450962E+00  1.87000394E+00  0.00000000E+00 -5.59938612E-02  5.98897116E-03
  9.17769703E-02  1.43450962E+00 -1.87000394E+00  0.00000000E+00 -5.59938612E-02
 -5.98897116E-03  0.00000000E+00  0.00000000E+00  0.00000000E+00  0.00000000E+00