 Entering Gaussian System, Link 0=g16
 Input=test1.gjf
 Output=test1.log
 Initial command:
 /apps/gaussian/g16-c01-avx2/g16/l1.exe "/var/tmp/pbs.8972038.pbs/Gau-1943537.inp" -scrdir="/var/tmp/pbs.8972038.pbs/"
 Entering Link 1 = /apps/gaussian/g16-c01-avx2/g16/l1.exe PID=   1943538.
  
 Copyright (c) 1988-2019, Gaussian, Inc.  All Rights Reserved.
  
 This is part of the Gaussian(R) 16 program.  It is based on
 the Gaussian(R) 09 system (copyright 2009, Gaussian, Inc.),
 the Gaussian(R) 03 system (copyright 2003, Gaussian, Inc.),
 the Gaussian(R) 98 system (copyright 1998, Gaussian, Inc.),
 the Gaussian(R) 94 system (copyright 1995, Gaussian, Inc.),
 the Gaussian 92(TM) system (copyright 1992, Gaussian, Inc.),
 the Gaussian 90(TM) system (copyright 1990, Gaussian, Inc.),
 the Gaussian 88(TM) system (copyright 1988, Gaussian, Inc.),
 the Gaussian 86(TM) system (copyright 1986, Carnegie Mellon
 University), and the Gaussian 82(TM) system (copyright 1983,
 Carnegie Mellon University). Gaussian is a federally registered
 trademark of Gaussian, Inc.
  
 This software contains proprietary and confidential information,
 including trade secrets, belonging to Gaussian, Inc.
  
 This software is provided under written license and may be
 used, copied, transmitted, or stored only in accord with that
 written license.
  
 The following legend is applicable only to US Government
 contracts under FAR:
  
                    RESTRICTED RIGHTS LEGEND
  
 Use, reproduction and disclosure by the US Government is
 subject to restrictions as set forth in subparagraphs (a)
 and (c) of the Commercial Computer Software - Restricted
 Rights clause in FAR 52.227-19.
  
 Gaussian, Inc.
 340 Quinnipiac St., Bldg. 40, Wallingford CT 06492
  
  
 ---------------------------------------------------------------
 Warning -- This program may not be used in any manner that
 competes with the business of Gaussian, Inc. or will provide
 assistance to any competitor of Gaussian, Inc.  The licensee
 of this program is prohibited from giving any competitor of
 Gaussian, Inc. access to this program.  By using this program,
 the user acknowledges that Gaussian, Inc. is engaged in the
 business of creating and licensing software in the field of
 computational chemistry and represents and warrants to the
 licensee that it is not a competitor of Gaussian, Inc. and that
 it will not use this program in any manner prohibited above.
 ---------------------------------------------------------------
  

 Cite this work as:
 Gaussian 16, Revision C.01,
 M. J. Frisch, G. W. Trucks, H. B. Schlegel, G. E. Scuseria, 
 M. A. Robb, J. R. Cheeseman, G. Scalmani, V. Barone, 
 G. A. Petersson, H. Nakatsuji, X. Li, M. Caricato, A. V. Marenich, 
 J. Bloino, B. G. Janesko, R. Gomperts, B. Mennucci, H. P. Hratchian, 
 J. V. Ortiz, A. F. Izmaylov, J. L. Sonnenberg, D. Williams-Young, 
 F. Ding, F. Lipparini, F. Egidi, J. Goings, B. Peng, A. Petrone, 
 T. Henderson, D. Ranasinghe, V. G. Zakrzewski, J. Gao, N. Rega, 
 G. Zheng, W. Liang, M. Hada, M. Ehara, K. Toyota, R. Fukuda, 
 J. Hasegawa, M. Ishida, T. Nakajima, Y. Honda, O. Kitao, H. Nakai, 
 T. Vreven, K. Throssell, J. A. Montgomery, Jr., J. E. Peralta, 
 F. Ogliaro, M. J. Bearpark, J. J. Heyd, E. N. Brothers, K. N. Kudin, 
 V. N. Staroverov, T. A. Keith, R. Kobayashi, J. Normand, 
 K. Raghavachari, A. P. Rendell, J. C. Burant, S. S. Iyengar, 
 J. Tomasi, M. Cossi, J. M. Millam, M. Klene, C. Adamo, R. Cammi, 
 J. W. Ochterski, R. L. Martin, K. Morokuma, O. Farkas, 
 J. B. Foresman, and D. J. Fox, Gaussian, Inc., Wallingford CT, 2019.
 
 ******************************************
 Gaussian 16:  ES64L-G16RevC.01  3-Jul-2019
                22-Feb-2024 
 ******************************************
 %oldchk=/rds/general/user/rk820/home/dibs-g16/fc_ht/formaldehyde/formaldehyde.ch
 k
 %chk=/rds/general/user/rk820/home/dibs-g16/fc_ht/formaldehyde/test1.chk
 Copying data from "/rds/general/user/rk820/home/dibs-g16/fc_ht/formaldehyde/formaldehyde.chk" to current chk file "/rds/general/user/rk820/home/dibs-g16/fc_ht/formaldehyde/test1.chk"
 IOpt=  2 FromEx=T IUOpen= 4 IOptOp= 5 NList=   0 IFRang= 0 IUIn= 4 IUOut= 2.
 -------------------------------------------------------------------
 # CIS/STO-3G CIS=(nstates=2, Root=1) geom=check Density=Current Opt
 -------------------------------------------------------------------
 1/18=20,19=15,29=2,38=1/1,3;
 2/9=110,12=2,40=1/2;
 3/6=3,11=9,14=-4,25=1,30=1,71=1/1,2,3,8;
 4//1;
 5/5=2,38=5/2;
 8/6=1,10=1,107=1,108=2/1;
 9/8=1,15=2,41=2,42=1,70=2/14;
 10/5=4,28=1/2;
 6/7=2,8=2,9=2,10=2,22=-1/1;
 7/12=6,13=5,14=1/1,2,3,16;
 1/18=20,19=15/3(2);
 2/9=110/2;
 99//99;
 2/9=110/2;
 3/6=3,11=9,14=-2,25=1,30=1,71=1/1,2,3,8;
 4/5=5,16=3,69=1/1;
 5/5=2,38=5/2;
 8/6=1,10=1,107=1,108=2/1;
 9/8=1,15=2,41=2,42=1,49=4,70=2/14;
 10/5=4,28=1/2;
 7/12=6,13=5,14=1/1,2,3,16;
 1/18=20,19=15/3(-8);
 2/9=110/2;
 6/7=2,8=2,9=2,10=2,22=-1/1;
 99/9=10/99;
 ----------------------------------------------------------------------
 HF/STO-3G for formaldehyde, calculating the first two excited states a
 nd optimizing its geometry.
 ----------------------------------------------------------------------
 Structure from the checkpoint file:  "/rds/general/user/rk820/home/dibs-g16/fc_ht/formaldehyde/test1.chk"
 Charge =  0 Multiplicity = 1
 Redundant internal coordinates found in file.  (old form).
 C,0,-0.5018872686,-0.3688974972,0.
 H,0,0.0025477186,-1.3477056253,0.
 H,0,-1.6017582726,-0.4218482504,0.
 O,0,0.1061955746,0.684775536,0.
 Recover connectivity data from disk.

 GradGradGradGradGradGradGradGradGradGradGradGradGradGradGradGradGradGrad
 Berny optimization.
 Initialization pass.
                           ----------------------------
                           !    Initial Parameters    !
                           ! (Angstroms and Degrees)  !
 --------------------------                            --------------------------
 ! Name  Definition              Value          Derivative Info.                !
 --------------------------------------------------------------------------------
 ! R1    R(1,2)                  1.1011         estimate D2E/DX2                !
 ! R2    R(1,3)                  1.1011         estimate D2E/DX2                !
 ! R3    R(1,4)                  1.2165         estimate D2E/DX2                !
 ! A1    A(2,1,3)              114.5084         estimate D2E/DX2                !
 ! A2    A(2,1,4)              122.7458         estimate D2E/DX2                !
 ! A3    A(3,1,4)              122.7458         estimate D2E/DX2                !
 ! D1    D(2,1,4,3)            180.0            estimate D2E/DX2                !
 --------------------------------------------------------------------------------
 Trust Radius=3.00D-01 FncErr=1.00D-07 GrdErr=1.00D-07 EigMax=2.50D+02 EigMin=1.00D-04
 Number of steps in this run=     20 maximum allowed number of steps=    100.
 GradGradGradGradGradGradGradGradGradGradGradGradGradGradGradGradGradGrad

                          Input orientation:                          
 ---------------------------------------------------------------------
 Center     Atomic      Atomic             Coordinates (Angstroms)
 Number     Number       Type             X           Y           Z
 ---------------------------------------------------------------------
      1          6           0       -0.501887   -0.368897    0.000000
      2          1           0        0.002548   -1.347706    0.000000
      3          1           0       -1.601758   -0.421848   -0.000000
      4          8           0        0.106196    0.684776   -0.000000
 ---------------------------------------------------------------------
                    Distance matrix (angstroms):
                    1          2          3          4
     1  C    0.000000
     2  H    1.101145   0.000000
     3  H    1.101145   1.852298   0.000000
     4  O    1.216549   2.035122   2.035122   0.000000
 Stoichiometry    CH2O
 Framework group  C2V[C2(CO),SGV(H2)]
 Deg. of freedom     3
 Full point group                 C2V     NOp   4
 Largest Abelian subgroup         C2V     NOp   4
 Largest concise Abelian subgroup C2      NOp   2
                         Standard orientation:                         
 ---------------------------------------------------------------------
 Center     Atomic      Atomic             Coordinates (Angstroms)
 Number     Number       Type             X           Y           Z
 ---------------------------------------------------------------------
      1          6           0       -0.000000    0.000000   -0.533822
      2          1           0       -0.000000   -0.926149   -1.129445
      3          1           0        0.000000    0.926149   -1.129445
      4          8           0        0.000000   -0.000000    0.682727
 ---------------------------------------------------------------------
 Rotational constants (GHZ):         292.3076086          38.0571270          33.6730486
 Standard basis: STO-3G (5D, 7F)
 There are     7 symmetry adapted cartesian basis functions of A1  symmetry.
 There are     0 symmetry adapted cartesian basis functions of A2  symmetry.
 There are     2 symmetry adapted cartesian basis functions of B1  symmetry.
 There are     3 symmetry adapted cartesian basis functions of B2  symmetry.
 There are     7 symmetry adapted basis functions of A1  symmetry.
 There are     0 symmetry adapted basis functions of A2  symmetry.
 There are     2 symmetry adapted basis functions of B1  symmetry.
 There are     3 symmetry adapted basis functions of B2  symmetry.
    12 basis functions,    36 primitive gaussians,    12 cartesian basis functions
     8 alpha electrons        8 beta electrons
       nuclear repulsion energy        31.0920308439 Hartrees.
 NAtoms=    4 NActive=    4 NUniq=    3 SFac= 1.78D+00 NAtFMM=   60 NAOKFM=F Big=F
 Integral buffers will be    131072 words long.
 Raffenetti 1 integral format.
 Two-electron integral symmetry is turned on.
 One-electron integrals computed using PRISM.
 NBasis=    12 RedAO= T EigKep=  2.41D-01  NBF=     7     0     2     3
 NBsUse=    12 1.00D-06 EigRej= -1.00D+00 NBFU=     7     0     2     3
 ExpMin= 1.69D-01 ExpMax= 1.31D+02 ExpMxC= 1.31D+02 IAcc=3 IRadAn=         5 AccDes= 0.00D+00
 Harris functional with IExCor=  205 and IRadAn=       5 diagonalized for initial guess.
 HarFok:  IExCor=  205 AccDes= 0.00D+00 IRadAn=         5 IDoV= 1 UseB2=F ITyADJ=14
 ICtDFT=  3500011 ScaDFX=  1.000000  1.000000  1.000000  1.000000
 FoFCou: FMM=F IPFlag=           0 FMFlag=      100000 FMFlg1=           0
         NFxFlg=           0 DoJE=T BraDBF=F KetDBF=T FulRan=T
         wScrn=  0.000000 ICntrl=       500 IOpCl=  0 I1Cent=   200000004 NGrid=           0
         NMat0=    1 NMatS0=      1 NMatT0=    0 NMatD0=    1 NMtDS0=    0 NMtDT0=    0
 Petite list used in FoFCou.
 Initial guess orbital symmetries:
       Occupied  (A1) (A1) (A1) (A1) (B2) (A1) (B1) (B2)
       Virtual   (B1) (A1) (B2) (A1)
 The electronic state of the initial guess is 1-A1.
 Keep R1 ints in memory in symmetry-blocked form, NReq=807829.
 Requested convergence on RMS density matrix=1.00D-08 within 128 cycles.
 Requested convergence on MAX density matrix=1.00D-06.
 Requested convergence on             energy=1.00D-06.
 No special actions if energy rises.
 SCF Done:  E(RHF) =  -112.354346976     A.U. after    9 cycles
            NFock=  9  Conv=0.93D-08     -V/T= 2.0089
 ExpMin= 1.69D-01 ExpMax= 1.31D+02 ExpMxC= 1.31D+02 IAcc=3 IRadAn=         5 AccDes= 0.00D+00
 HarFok:  IExCor=  205 AccDes= 0.00D+00 IRadAn=         5 IDoV=-2 UseB2=F ITyADJ=14
 ICtDFT= 12500011 ScaDFX=  1.000000  1.000000  1.000000  1.000000
 Range of M.O.s used for correlation:     3    12
 NBasis=    12 NAE=     8 NBE=     8 NFC=     2 NFV=     0
 NROrb=     10 NOA=     6 NOB=     6 NVA=     4 NVB=     4
 Keep R1, R2, and R3 ints in memory in symmetry-blocked form, NReq=808268.
 Orbital symmetries:
       Occupied  (A1) (A1) (A1) (A1) (B2) (A1) (B1) (B2)
       Virtual   (B1) (A1) (B2) (A1)
     8 initial guesses have been made.
 Convergence on wavefunction:    0.000001000000000
 Iteration     1 Dimension     8 NMult     0 NNew      8
 CISAX will form     8 AO SS matrices at one time.
 New state      2 was old state      3
 Iteration     2 Dimension    11 NMult     8 NNew      3
 ***********************************************************************
 Excited states from <AA,BB:AA,BB> singles matrix:
 ***********************************************************************
 
 Ground to excited state transition densities written to RWF  633
 Ground to excited state transition electric dipole moments (Au):
       state          X           Y           Z        Dip. S.      Osc.
         1         0.0000     -0.0000      0.0000      0.0000      0.0000
         2         0.2198     -0.0000      0.0000      0.0483      0.0108
 Ground to excited state transition velocity dipole moments (Au):
       state          X           Y           Z        Dip. S.      Osc.
         1        -0.0000      0.0000     -0.0000      0.0000      0.0000
         2        -0.1613     -0.0000     -0.0000      0.0260      0.0518
 Ground to excited state transition magnetic dipole moments (Au):
       state          X           Y           Z
         1         0.0000     -0.0000      1.1625
         2        -0.0000     -1.7917     -0.0000
 Ground to excited state transition velocity quadrupole moments (Au):
       state          XX          YY          ZZ          XY          XZ          YZ
         1         0.0000      0.0000      0.0000      0.0246      0.0000     -0.0000
         2         0.0000      0.0000      0.0000     -0.0000     -0.0762      0.0000
 <0|del|b> * <b|rxdel|0> + <0|del|b> * <b|delr+rdel|0>
 Rotatory Strengths (R) in cgs (10**-40 erg-esu-cm/Gauss)
       state          XX          YY          ZZ    R(velocity)    E-M Angle
         1        -0.0000     -0.0000     -0.0000     -0.0000       90.00
         2         0.0000     -0.0000      0.0000      0.0000       90.00
 1/2[<0|r|b>*<b|rxdel|0> + (<0|rxdel|b>*<b|r|0>)*]
 Rotatory Strengths (R) in cgs (10**-40 erg-esu-cm/Gauss)
       state          XX          YY          ZZ     R(length)
         1        -0.0000     -0.0000     -0.0000     -0.0000
         2         0.0000     -0.0000      0.0000     -0.0000
  1/2[<0|del|b>*<b|r|0> + (<0|r|b>*<b|del|0>)*] (Au)
       state          X           Y           Z        Dip. S.   Osc.(frdel)
         1        -0.0000     -0.0000     -0.0000      0.0000      0.0000
         2        -0.0355      0.0000     -0.0000      0.0355      0.0236

 Excitation energies and oscillator strengths:
 
 Excited State   1:      Singlet-A2     4.1086 eV  301.77 nm  f=0.0000  <S**2>=0.000
       5 ->  9         0.14173
       8 ->  9         0.69544
 This state for optimization and/or second-order correction.
 Total Energy, E(TD-HF/TD-DFT) =  -112.203359298    
 Copying the excited state density for this state as the 1-particle RhoCI density.
 
 Excited State   2:      Singlet-B1     9.1087 eV  136.12 nm  f=0.0108  <S**2>=0.000
       6 ->  9         0.70710
 SavETr:  write IOETrn=   770 NScale= 10 NData=  16 NLR=1 NState=    2 LETran=      46.
          IDoAtm=1111
          Differentiating once with respect to electric field.
                with respect to dipole field.
          Differentiating once with respect to nuclear coordinates.
 Keep R1 ints in memory in symmetry-blocked form, NReq=808418.
          There are     1 degrees of freedom in the 1st order CPHF.  IDoFFX=0 NUNeed=     1.
 LinEq1:  Iter=  0 NonCon=     1 RMS=9.12D-02 Max=4.17D-01 NDo=     1
 AX will form     1 AO Fock derivatives at one time.
 LinEq1:  Iter=  1 NonCon=     1 RMS=1.53D-02 Max=6.50D-02 NDo=     1
 LinEq1:  Iter=  2 NonCon=     1 RMS=1.61D-03 Max=4.94D-03 NDo=     1
 LinEq1:  Iter=  3 NonCon=     1 RMS=3.27D-04 Max=1.24D-03 NDo=     1
 LinEq1:  Iter=  4 NonCon=     1 RMS=3.40D-05 Max=1.16D-04 NDo=     1
 LinEq1:  Iter=  5 NonCon=     1 RMS=1.43D-06 Max=5.40D-06 NDo=     1
 LinEq1:  Iter=  6 NonCon=     1 RMS=9.14D-08 Max=2.76D-07 NDo=     1
 LinEq1:  Iter=  7 NonCon=     1 RMS=5.42D-09 Max=2.34D-08 NDo=     1
 LinEq1:  Iter=  8 NonCon=     1 RMS=2.49D-10 Max=8.86D-10 NDo=     1
 LinEq1:  Iter=  9 NonCon=     0 RMS=8.09D-12 Max=2.33D-11 NDo=     1
 Linear equations converged to 1.000D-10 1.000D-09 after     9 iterations.
 End of Minotr F.D. properties file   721 does not exist.
 End of Minotr F.D. properties file   722 does not exist.
 End of Minotr F.D. properties file   788 does not exist.

 **********************************************************************

            Population analysis using the CI Density.

 **********************************************************************

 Orbital symmetries:
       Occupied  (A1) (A1) (A1) (A1) (B2) (A1) (B1) (B2)
       Virtual   (B1) (A1) (B2) (A1)
 The electronic state is 1-A1.
 Alpha  occ. eigenvalues --  -20.31277 -11.12510  -1.33757  -0.80784  -0.63301
 Alpha  occ. eigenvalues --   -0.54562  -0.44330  -0.35440
 Alpha virt. eigenvalues --    0.28203   0.62894   0.73458   0.91320
          Condensed to atoms (all electrons):
               1          2          3          4
     1  C    5.062378   0.367975   0.367975   0.339035
     2  H    0.367975   0.585585  -0.023832  -0.014362
     3  H    0.367975  -0.023832   0.585585  -0.014362
     4  O    0.339035  -0.014362  -0.014362   7.721593
 Mulliken charges:
               1
     1  C   -0.137363
     2  H    0.084634
     3  H    0.084634
     4  O   -0.031905
 Sum of Mulliken charges =   0.00000
 Mulliken charges with hydrogens summed into heavy atoms:
               1
     1  C    0.031905
     4  O   -0.031905
 Electronic spatial extent (au):  <R**2>=             58.3142
 Charge=              0.0000 electrons
 Dipole moment (field-independent basis, Debye):
    X=             -0.0000    Y=             -0.0000    Z=             -0.5768  Tot=              0.5768
 Quadrupole moment (field-independent basis, Debye-Ang):
   XX=            -11.3811   YY=             -9.4786   ZZ=            -10.9573
   XY=             -0.0000   XZ=              0.0000   YZ=              0.0000
 Traceless Quadrupole moment (field-independent basis, Debye-Ang):
   XX=             -0.7754   YY=              1.1270   ZZ=             -0.3516
   XY=             -0.0000   XZ=              0.0000   YZ=              0.0000
 Octapole moment (field-independent basis, Debye-Ang**2):
  XXX=             -0.0000  YYY=             -0.0000  ZZZ=              2.6091  XYY=              0.0000
  XXY=              0.0000  XXZ=              1.8131  XZZ=             -0.0000  YZZ=             -0.0000
  YYZ=              0.5538  XYZ=             -0.0000
 Hexadecapole moment (field-independent basis, Debye-Ang**3):
 XXXX=             -7.7471 YYYY=            -13.3770 ZZZZ=            -38.9422 XXXY=             -0.0000
 XXXZ=              0.0000 YYYX=              0.0000 YYYZ=              0.0000 ZZZX=             -0.0000
 ZZZY=              0.0000 XXYY=             -3.8029 XXZZ=             -8.2622 YYZZ=             -7.2266
 XXYZ=             -0.0000 YYXZ=             -0.0000 ZZXY=              0.0000
 N-N= 3.109203084386D+01 E-N=-3.270383302732D+02  KE= 1.114953611593D+02
 Symmetry A1   KE= 1.009873144471D+02
 Symmetry A2   KE= 0.000000000000D+00
 Symmetry B1   KE= 6.090355815742D+00
 Symmetry B2   KE= 4.417690896412D+00
 Calling FoFJK, ICntrl=  10005127 FMM=F ISym2X=1 I1Cent= 0 IOpClX= 0 NMat=1 NMatS=1 NMatT=0.
 ***** Axes restored to original set *****
 -------------------------------------------------------------------
 Center     Atomic                   Forces (Hartrees/Bohr)
 Number     Number              X              Y              Z
 -------------------------------------------------------------------
      1        6          -0.098667280   -0.170968567   -0.000000000
      2        1          -0.001470980    0.016676000   -0.000000000
      3        1           0.015174758    0.007069616    0.000000000
      4        8           0.084963502    0.147222951    0.000000000
 -------------------------------------------------------------------
 Cartesian Forces:  Max     0.170968567 RMS     0.075509041

 GradGradGradGradGradGradGradGradGradGradGradGradGradGradGradGradGradGrad
 Berny optimization.
 FormGI is forming the generalized inverse of G from B-inverse, IUseBI=4.
 Internal  Forces:  Max     0.169980569 RMS     0.064905917
 Search for a local minimum.
 Step number   1 out of a maximum of   20
 All quantities printed in internal units (Hartrees-Bohrs-Radians)
 Mixed Optimization -- RFO/linear search
 Second derivative matrix not updated -- first step.
 The second derivative matrix:
                          R1        R2        R3        A1        A2
           R1           0.33556
           R2           0.00000   0.33556
           R3           0.00000   0.00000   0.96929
           A1           0.00000   0.00000   0.00000   0.16000
           A2           0.00000   0.00000   0.00000   0.00000   0.16000
           A3           0.00000   0.00000   0.00000   0.00000   0.00000
           D1           0.00000   0.00000   0.00000   0.00000   0.00000
                          A3        D1
           A3           0.16000
           D1           0.00000   0.04118
 ITU=  0
     Eigenvalues ---    0.04118   0.16000   0.16000   0.33556   0.33556
     Eigenvalues ---    0.96929
 RFO step:  Lambda=-3.08081990D-02 EMin= 4.11848468D-02
 Linear search not attempted -- first point.
 Iteration  1 RMS(Cart)=  0.04643011 RMS(Int)=  0.00052965
 Iteration  2 RMS(Cart)=  0.00056724 RMS(Int)=  0.00000017
 Iteration  3 RMS(Cart)=  0.00000013 RMS(Int)=  0.00000000
 ClnCor:  largest displacement from symmetrization is 1.70D-09 for atom     4.
 Variable       Old X    -DE/DX   Delta X   Delta X   Delta X     New X
                                 (Linear)    (Quad)   (Total)
    R1        2.08086  -0.01550   0.00000  -0.04230  -0.04230   2.03856
    R2        2.08086  -0.01550   0.00000  -0.04230  -0.04230   2.03856
    R3        2.29894   0.16998   0.00000   0.16996   0.16996   2.46891
    A1        1.99855   0.00878   0.00000   0.04603   0.04603   2.04458
    A2        2.14232  -0.00439   0.00000  -0.02302  -0.02302   2.11930
    A3        2.14232  -0.00439   0.00000  -0.02302  -0.02302   2.11930
    D1        3.14159   0.00000   0.00000   0.00000   0.00000   3.14159
         Item               Value     Threshold  Converged?
 Maximum Force            0.169981     0.000450     NO 
 RMS     Force            0.064906     0.000300     NO 
 Maximum Displacement     0.083283     0.001800     NO 
 RMS     Displacement     0.046553     0.001200     NO 
 Predicted change in Energy=-1.595318D-02
 GradGradGradGradGradGradGradGradGradGradGradGradGradGradGradGradGradGrad

                          Input orientation:                          
 ---------------------------------------------------------------------
 Center     Atomic      Atomic             Coordinates (Angstroms)
 Number     Number       Type             X           Y           Z
 ---------------------------------------------------------------------
      1          6           0       -0.521410   -0.402726    0.000000
      2          1           0       -0.005291   -1.350009    0.000000
      3          1           0       -1.599831   -0.429788   -0.000000
      4          8           0        0.131629    0.728847   -0.000000
 ---------------------------------------------------------------------
                    Distance matrix (angstroms):
                    1          2          3          4
     1  C    0.000000
     2  H    1.078761   0.000000
     3  H    1.078761   1.841024   0.000000
     4  O    1.306490   2.083360   2.083360   0.000000
 Stoichiometry    CH2O
 Framework group  C2V[C2(CO),SGV(H2)]
 Deg. of freedom     3
 Full point group                 C2V     NOp   4
 Largest Abelian subgroup         C2V     NOp   4
 Largest concise Abelian subgroup C2      NOp   2
                         Standard orientation:                         
 ---------------------------------------------------------------------
 Center     Atomic      Atomic             Coordinates (Angstroms)
 Number     Number       Type             X           Y           Z
 ---------------------------------------------------------------------
      1          6           0        0.000000   -0.000000   -0.582935
      2          1           0       -0.000000   -0.920512   -1.145415
      3          1           0        0.000000    0.920512   -1.145415
      4          8           0       -0.000000    0.000000    0.723555
 ---------------------------------------------------------------------
 Rotational constants (GHZ):         295.8989154          33.8623586          30.3851179
 Standard basis: STO-3G (5D, 7F)
 There are     7 symmetry adapted cartesian basis functions of A1  symmetry.
 There are     0 symmetry adapted cartesian basis functions of A2  symmetry.
 There are     2 symmetry adapted cartesian basis functions of B1  symmetry.
 There are     3 symmetry adapted cartesian basis functions of B2  symmetry.
 There are     7 symmetry adapted basis functions of A1  symmetry.
 There are     0 symmetry adapted basis functions of A2  symmetry.
 There are     2 symmetry adapted basis functions of B1  symmetry.
 There are     3 symmetry adapted basis functions of B2  symmetry.
    12 basis functions,    36 primitive gaussians,    12 cartesian basis functions
     8 alpha electrons        8 beta electrons
       nuclear repulsion energy        29.6797525551 Hartrees.
 NAtoms=    4 NActive=    4 NUniq=    3 SFac= 1.78D+00 NAtFMM=   60 NAOKFM=F Big=F
 Integral buffers will be    131072 words long.
 Raffenetti 1 integral format.
 Two-electron integral symmetry is turned on.
 One-electron integrals computed using PRISM.
 NBasis=    12 RedAO= T EigKep=  2.59D-01  NBF=     7     0     2     3
 NBsUse=    12 1.00D-06 EigRej= -1.00D+00 NBFU=     7     0     2     3
 Initial guess from the checkpoint file:  "/rds/general/user/rk820/home/dibs-g16/fc_ht/formaldehyde/test1.chk"
 B after Tr=    -0.000000    0.000000    0.000000
         Rot=    1.000000   -0.000000   -0.000000   -0.000000 Ang=   0.00 deg.
 Initial guess orbital symmetries:
       Occupied  (A1) (A1) (A1) (A1) (B2) (A1) (B1) (B2)
       Virtual   (B1) (A1) (B2) (A1)
 ExpMin= 1.69D-01 ExpMax= 1.31D+02 ExpMxC= 1.31D+02 IAcc=3 IRadAn=         5 AccDes= 0.00D+00
 Harris functional with IExCor=  205 and IRadAn=       5 diagonalized for initial guess.
 HarFok:  IExCor=  205 AccDes= 0.00D+00 IRadAn=         5 IDoV= 1 UseB2=F ITyADJ=14
 ICtDFT=  3500011 ScaDFX=  1.000000  1.000000  1.000000  1.000000
 FoFCou: FMM=F IPFlag=           0 FMFlag=      100000 FMFlg1=           0
         NFxFlg=           0 DoJE=T BraDBF=F KetDBF=T FulRan=T
         wScrn=  0.000000 ICntrl=       500 IOpCl=  0 I1Cent=   200000004 NGrid=           0
         NMat0=    1 NMatS0=      1 NMatT0=    0 NMatD0=    1 NMtDS0=    0 NMtDT0=    0
 Petite list used in FoFCou.
 Keep R1 ints in memory in symmetry-blocked form, NReq=807829.
 Requested convergence on RMS density matrix=1.00D-08 within 128 cycles.
 Requested convergence on MAX density matrix=1.00D-06.
 Requested convergence on             energy=1.00D-06.
 No special actions if energy rises.
 SCF Done:  E(RHF) =  -112.340141790     A.U. after   10 cycles
            NFock= 10  Conv=0.39D-08     -V/T= 2.0094
 ExpMin= 1.69D-01 ExpMax= 1.31D+02 ExpMxC= 1.31D+02 IAcc=3 IRadAn=         5 AccDes= 0.00D+00
 HarFok:  IExCor=  205 AccDes= 0.00D+00 IRadAn=         5 IDoV=-2 UseB2=F ITyADJ=14
 ICtDFT= 12500011 ScaDFX=  1.000000  1.000000  1.000000  1.000000
 Range of M.O.s used for correlation:     3    12
 NBasis=    12 NAE=     8 NBE=     8 NFC=     2 NFV=     0
 NROrb=     10 NOA=     6 NOB=     6 NVA=     4 NVB=     4
 Keep R1, R2, and R3 ints in memory in symmetry-blocked form, NReq=808268.
 Orbital symmetries:
       Occupied  (A1) (A1) (A1) (A1) (B2) (A1) (B1) (B2)
       Virtual   (B1) (A1) (B2) (A1)
 Generating guess from densities on rwf.
 Convergence on wavefunction:    0.000001000000000
 Iteration     1 Dimension     4 NMult     0 NNew      4
 CISAX will form     4 AO SS matrices at one time.
 Iteration     2 Dimension     7 NMult     4 NNew      3
 Iteration     3 Dimension     8 NMult     7 NNew      1
 ***********************************************************************
 Excited states from <AA,BB:AA,BB> singles matrix:
 ***********************************************************************
 
 Ground to excited state transition densities written to RWF  633
 Ground to excited state transition electric dipole moments (Au):
       state          X           Y           Z        Dip. S.      Osc.
         1         0.0000      0.0000     -0.0000      0.0000      0.0000
         2         0.2170     -0.0000      0.0000      0.0471      0.0088
 Ground to excited state transition velocity dipole moments (Au):
       state          X           Y           Z        Dip. S.      Osc.
         1         0.0000      0.0000     -0.0000      0.0000      0.0000
         2        -0.1497     -0.0000      0.0000      0.0224      0.0533
 Ground to excited state transition magnetic dipole moments (Au):
       state          X           Y           Z
         1         0.0000     -0.0000      1.1714
         2        -0.0000     -1.8452     -0.0000
 Ground to excited state transition velocity quadrupole moments (Au):
       state          XX          YY          ZZ          XY          XZ          YZ
         1        -0.0000      0.0000      0.0000      0.0231     -0.0000     -0.0000
         2         0.0000     -0.0000     -0.0000      0.0000     -0.0472      0.0000
 <0|del|b> * <b|rxdel|0> + <0|del|b> * <b|delr+rdel|0>
 Rotatory Strengths (R) in cgs (10**-40 erg-esu-cm/Gauss)
       state          XX          YY          ZZ    R(velocity)    E-M Angle
         1        -0.0000     -0.0000     -0.0000     -0.0000       90.00
         2         0.0000     -0.0000      0.0000      0.0000       90.00
 1/2[<0|r|b>*<b|rxdel|0> + (<0|rxdel|b>*<b|r|0>)*]
 Rotatory Strengths (R) in cgs (10**-40 erg-esu-cm/Gauss)
       state          XX          YY          ZZ     R(length)
         1        -0.0000      0.0000      0.0000      0.0000
         2         0.0000     -0.0000      0.0000     -0.0000
  1/2[<0|del|b>*<b|r|0> + (<0|r|b>*<b|del|0>)*] (Au)
       state          X           Y           Z        Dip. S.   Osc.(frdel)
         1         0.0000      0.0000      0.0000     -0.0000     -0.0000
         2        -0.0325      0.0000      0.0000      0.0325      0.0217

 Excitation energies and oscillator strengths:
 
 Excited State   1:      Singlet-A2     3.3415 eV  371.05 nm  f=0.0000  <S**2>=0.000
       5 ->  9         0.12271
       8 ->  9         0.69990
 This state for optimization and/or second-order correction.
 Total Energy, E(TD-HF/TD-DFT) =  -112.217344501    
 Copying the excited state density for this state as the 1-particle RhoCI density.
 
 Excited State   2:      Singlet-B1     7.6302 eV  162.49 nm  f=0.0088  <S**2>=0.000
       6 ->  9         0.70969
 SavETr:  write IOETrn=   770 NScale= 10 NData=  16 NLR=1 NState=    2 LETran=      46.
          IDoAtm=1111
          Differentiating once with respect to electric field.
                with respect to dipole field.
          Differentiating once with respect to nuclear coordinates.
 Keep R1 ints in memory in symmetry-blocked form, NReq=808418.
          There are     1 degrees of freedom in the 1st order CPHF.  IDoFFX=0 NUNeed=     1.
 LinEq1:  Iter=  0 NonCon=     1 RMS=1.17D-01 Max=5.38D-01 NDo=     1
 AX will form     1 AO Fock derivatives at one time.
 LinEq1:  Iter=  1 NonCon=     1 RMS=1.94D-02 Max=6.93D-02 NDo=     1
 LinEq1:  Iter=  2 NonCon=     1 RMS=2.98D-03 Max=9.56D-03 NDo=     1
 LinEq1:  Iter=  3 NonCon=     1 RMS=3.34D-04 Max=9.43D-04 NDo=     1
 LinEq1:  Iter=  4 NonCon=     1 RMS=2.76D-05 Max=8.57D-05 NDo=     1
 LinEq1:  Iter=  5 NonCon=     1 RMS=1.18D-06 Max=4.19D-06 NDo=     1
 LinEq1:  Iter=  6 NonCon=     1 RMS=7.54D-08 Max=2.82D-07 NDo=     1
 LinEq1:  Iter=  7 NonCon=     1 RMS=3.28D-09 Max=1.19D-08 NDo=     1
 LinEq1:  Iter=  8 NonCon=     1 RMS=2.04D-10 Max=7.02D-10 NDo=     1
 LinEq1:  Iter=  9 NonCon=     0 RMS=6.57D-12 Max=2.11D-11 NDo=     1
 Linear equations converged to 1.000D-10 1.000D-09 after     9 iterations.
 End of Minotr F.D. properties file   721 does not exist.
 End of Minotr F.D. properties file   722 does not exist.
 End of Minotr F.D. properties file   788 does not exist.
 Calling FoFJK, ICntrl=  10005127 FMM=F ISym2X=1 I1Cent= 0 IOpClX= 0 NMat=1 NMatS=1 NMatT=0.
 ***** Axes restored to original set *****
 -------------------------------------------------------------------
 Center     Atomic                   Forces (Hartrees/Bohr)
 Number     Number              X              Y              Z
 -------------------------------------------------------------------
      1        6          -0.002212736   -0.003834181   -0.000000000
      2        1           0.006845375    0.002890277    0.000000000
      3        1          -0.000922317    0.007373072    0.000000000
      4        8          -0.003710323   -0.006429168   -0.000000000
 -------------------------------------------------------------------
 Cartesian Forces:  Max     0.007373072 RMS     0.003927717

 GradGradGradGradGradGradGradGradGradGradGradGradGradGradGradGradGradGrad
 Berny optimization.
 Using GEDIIS/GDIIS optimizer.
 FormGI is forming the generalized inverse of G from B-inverse, IUseBI=4.
 Internal  Forces:  Max     0.010048604 RMS     0.005446478
 Search for a local minimum.
 Step number   2 out of a maximum of   20
 All quantities printed in internal units (Hartrees-Bohrs-Radians)
 Mixed Optimization -- RFO/linear search
 Update second derivatives using D2CorX and points    1    2
 DE= -1.40D-02 DEPred=-1.60D-02 R= 8.77D-01
 TightC=F SS=  1.41D+00  RLast= 1.89D-01 DXNew= 5.0454D-01 5.6640D-01
 Trust test= 8.77D-01 RLast= 1.89D-01 DXMaxT set to 5.05D-01
 The second derivative matrix:
                          R1        R2        R3        A1        A2
           R1           0.33716
           R2           0.00160   0.33716
           R3          -0.01290  -0.01290   1.05684
           A1           0.00417   0.00417  -0.04798   0.15822
           A2          -0.00209  -0.00209   0.02399   0.00089   0.15956
           A3          -0.00209  -0.00209   0.02399   0.00089  -0.00044
           D1          -0.00000  -0.00000   0.00000  -0.00000   0.00000
                          A3        D1
           A3           0.15956
           D1           0.00000   0.04118
 ITU=  1  0
 Use linear search instead of GDIIS.
     Eigenvalues ---    0.04118   0.15332   0.16000   0.33556   0.33848
     Eigenvalues ---    1.06115
 RFO step:  Lambda=-9.13816126D-04 EMin= 4.11848468D-02
 Quartic linear search produced a step of -0.02501.
 Iteration  1 RMS(Cart)=  0.02727347 RMS(Int)=  0.00050832
 Iteration  2 RMS(Cart)=  0.00046824 RMS(Int)=  0.00000001
 Iteration  3 RMS(Cart)=  0.00000001 RMS(Int)=  0.00000000
 ClnCor:  largest displacement from symmetrization is 6.57D-09 for atom     1.
 Variable       Old X    -DE/DX   Delta X   Delta X   Delta X     New X
                                 (Linear)    (Quad)   (Total)
    R1        2.03856   0.00074   0.00106   0.00040   0.00146   2.04002
    R2        2.03856   0.00074   0.00106   0.00040   0.00146   2.04002
    R3        2.46891  -0.00742  -0.00425   0.00072  -0.00353   2.46537
    A1        2.04458   0.01005  -0.00115   0.06222   0.06107   2.10565
    A2        2.11930  -0.00502   0.00058  -0.03111  -0.03053   2.08877
    A3        2.11930  -0.00502   0.00058  -0.03111  -0.03053   2.08877
    D1        3.14159   0.00000   0.00000   0.00000   0.00000   3.14159
         Item               Value     Threshold  Converged?
 Maximum Force            0.010049     0.000450     NO 
 RMS     Force            0.005446     0.000300     NO 
 Maximum Displacement     0.042159     0.001800     NO 
 RMS     Displacement     0.027146     0.001200     NO 
 Predicted change in Energy=-4.846863D-04
 GradGradGradGradGradGradGradGradGradGradGradGradGradGradGradGradGradGrad

                          Input orientation:                          
 ---------------------------------------------------------------------
 Center     Atomic      Atomic             Coordinates (Angstroms)
 Number     Number       Type             X           Y           Z
 ---------------------------------------------------------------------
      1          6           0       -0.528170   -0.414439    0.000000
      2          1           0        0.017019   -1.346190    0.000000
      3          1           0       -1.607686   -0.408560   -0.000000
      4          8           0        0.123935    0.715514   -0.000000
 ---------------------------------------------------------------------
                    Distance matrix (angstroms):
                    1          2          3          4
     1  C    0.000000
     2  H    1.079533   0.000000
     3  H    1.079533   1.875851   0.000000
     4  O    1.304620   2.064474   2.064474   0.000000
 Stoichiometry    CH2O
 Framework group  C2V[C2(CO),SGV(H2)]
 Deg. of freedom     3
 Full point group                 C2V     NOp   4
 Largest Abelian subgroup         C2V     NOp   4
 Largest concise Abelian subgroup C2      NOp   2
                         Standard orientation:                         
 ---------------------------------------------------------------------
 Center     Atomic      Atomic             Coordinates (Angstroms)
 Number     Number       Type             X           Y           Z
 ---------------------------------------------------------------------
      1          6           0       -0.000000    0.000000   -0.585498
      2          1           0        0.000000   -0.937926   -1.119994
      3          1           0        0.000000    0.937926   -1.119994
      4          8           0        0.000000   -0.000000    0.719122
 ---------------------------------------------------------------------
 Rotational constants (GHZ):         285.0133532          34.2638871          30.5867883
 Standard basis: STO-3G (5D, 7F)
 There are     7 symmetry adapted cartesian basis functions of A1  symmetry.
 There are     0 symmetry adapted cartesian basis functions of A2  symmetry.
 There are     2 symmetry adapted cartesian basis functions of B1  symmetry.
 There are     3 symmetry adapted cartesian basis functions of B2  symmetry.
 There are     7 symmetry adapted basis functions of A1  symmetry.
 There are     0 symmetry adapted basis functions of A2  symmetry.
 There are     2 symmetry adapted basis functions of B1  symmetry.
 There are     3 symmetry adapted basis functions of B2  symmetry.
    12 basis functions,    36 primitive gaussians,    12 cartesian basis functions
     8 alpha electrons        8 beta electrons
       nuclear repulsion energy        29.7352554141 Hartrees.
 NAtoms=    4 NActive=    4 NUniq=    3 SFac= 1.78D+00 NAtFMM=   60 NAOKFM=F Big=F
 Integral buffers will be    131072 words long.
 Raffenetti 1 integral format.
 Two-electron integral symmetry is turned on.
 One-electron integrals computed using PRISM.
 NBasis=    12 RedAO= T EigKep=  2.59D-01  NBF=     7     0     2     3
 NBsUse=    12 1.00D-06 EigRej= -1.00D+00 NBFU=     7     0     2     3
 Initial guess from the checkpoint file:  "/rds/general/user/rk820/home/dibs-g16/fc_ht/formaldehyde/test1.chk"
 B after Tr=     0.000000    0.000000   -0.000000
         Rot=    1.000000    0.000000    0.000000    0.000000 Ang=   0.00 deg.
 Initial guess orbital symmetries:
       Occupied  (A1) (A1) (A1) (A1) (B2) (A1) (B1) (B2)
       Virtual   (B1) (A1) (B2) (A1)
 ExpMin= 1.69D-01 ExpMax= 1.31D+02 ExpMxC= 1.31D+02 IAcc=3 IRadAn=         5 AccDes= 0.00D+00
 Harris functional with IExCor=  205 and IRadAn=       5 diagonalized for initial guess.
 HarFok:  IExCor=  205 AccDes= 0.00D+00 IRadAn=         5 IDoV= 1 UseB2=F ITyADJ=14
 ICtDFT=  3500011 ScaDFX=  1.000000  1.000000  1.000000  1.000000
 FoFCou: FMM=F IPFlag=           0 FMFlag=      100000 FMFlg1=           0
         NFxFlg=           0 DoJE=T BraDBF=F KetDBF=T FulRan=T
         wScrn=  0.000000 ICntrl=       500 IOpCl=  0 I1Cent=   200000004 NGrid=           0
         NMat0=    1 NMatS0=      1 NMatT0=    0 NMatD0=    1 NMtDS0=    0 NMtDT0=    0
 Petite list used in FoFCou.
 Keep R1 ints in memory in symmetry-blocked form, NReq=807829.
 Requested convergence on RMS density matrix=1.00D-08 within 128 cycles.
 Requested convergence on MAX density matrix=1.00D-06.
 Requested convergence on             energy=1.00D-06.
 No special actions if energy rises.
 SCF Done:  E(RHF) =  -112.340178789     A.U. after    8 cycles
            NFock=  8  Conv=0.54D-08     -V/T= 2.0093
 ExpMin= 1.69D-01 ExpMax= 1.31D+02 ExpMxC= 1.31D+02 IAcc=3 IRadAn=         5 AccDes= 0.00D+00
 HarFok:  IExCor=  205 AccDes= 0.00D+00 IRadAn=         5 IDoV=-2 UseB2=F ITyADJ=14
 ICtDFT= 12500011 ScaDFX=  1.000000  1.000000  1.000000  1.000000
 Range of M.O.s used for correlation:     3    12
 NBasis=    12 NAE=     8 NBE=     8 NFC=     2 NFV=     0
 NROrb=     10 NOA=     6 NOB=     6 NVA=     4 NVB=     4
 Keep R1, R2, and R3 ints in memory in symmetry-blocked form, NReq=808268.
 Orbital symmetries:
       Occupied  (A1) (A1) (A1) (A1) (B2) (A1) (B1) (B2)
       Virtual   (B1) (A1) (B2) (A1)
 Generating guess from densities on rwf.
 Convergence on wavefunction:    0.000001000000000
 Iteration     1 Dimension     4 NMult     0 NNew      4
 CISAX will form     4 AO SS matrices at one time.
 Iteration     2 Dimension     7 NMult     4 NNew      3
 Iteration     3 Dimension     8 NMult     7 NNew      1
 ***********************************************************************
 Excited states from <AA,BB:AA,BB> singles matrix:
 ***********************************************************************
 
 Ground to excited state transition densities written to RWF  633
 Ground to excited state transition electric dipole moments (Au):
       state          X           Y           Z        Dip. S.      Osc.
         1        -0.0000      0.0000     -0.0000      0.0000      0.0000
         2         0.2087     -0.0000      0.0000      0.0435      0.0081
 Ground to excited state transition velocity dipole moments (Au):
       state          X           Y           Z        Dip. S.      Osc.
         1         0.0000      0.0000     -0.0000      0.0000      0.0000
         2        -0.1459     -0.0000      0.0000      0.0213      0.0509
 Ground to excited state transition magnetic dipole moments (Au):
       state          X           Y           Z
         1         0.0000     -0.0000      1.1774
         2        -0.0000     -1.8486      0.0000
 Ground to excited state transition velocity quadrupole moments (Au):
       state          XX          YY          ZZ          XY          XZ          YZ
         1        -0.0000      0.0000      0.0000      0.0230     -0.0000     -0.0000
         2         0.0000     -0.0000     -0.0000     -0.0000     -0.0497      0.0000
 <0|del|b> * <b|rxdel|0> + <0|del|b> * <b|delr+rdel|0>
 Rotatory Strengths (R) in cgs (10**-40 erg-esu-cm/Gauss)
       state          XX          YY          ZZ    R(velocity)    E-M Angle
         1        -0.0000     -0.0000     -0.0000     -0.0000       90.00
         2         0.0000     -0.0000      0.0000      0.0000       90.00
 1/2[<0|r|b>*<b|rxdel|0> + (<0|rxdel|b>*<b|r|0>)*]
 Rotatory Strengths (R) in cgs (10**-40 erg-esu-cm/Gauss)
       state          XX          YY          ZZ     R(length)
         1         0.0000      0.0000      0.0000      0.0000
         2         0.0000     -0.0000     -0.0000     -0.0000
  1/2[<0|del|b>*<b|r|0> + (<0|r|b>*<b|del|0>)*] (Au)
       state          X           Y           Z        Dip. S.   Osc.(frdel)
         1        -0.0000      0.0000      0.0000      0.0000      0.0000
         2        -0.0304      0.0000      0.0000      0.0304      0.0203

 Excitation energies and oscillator strengths:
 
 Excited State   1:      Singlet-A2     3.3272 eV  372.64 nm  f=0.0000  <S**2>=0.000
       5 ->  9         0.12003
       8 ->  9         0.70037
 This state for optimization and/or second-order correction.
 Total Energy, E(TD-HF/TD-DFT) =  -112.217907738    
 Copying the excited state density for this state as the 1-particle RhoCI density.
 
 Excited State   2:      Singlet-B1     7.5757 eV  163.66 nm  f=0.0081  <S**2>=0.000
       6 ->  9         0.70960
 SavETr:  write IOETrn=   770 NScale= 10 NData=  16 NLR=1 NState=    2 LETran=      46.
          IDoAtm=1111
          Differentiating once with respect to electric field.
                with respect to dipole field.
          Differentiating once with respect to nuclear coordinates.
 Keep R1 ints in memory in symmetry-blocked form, NReq=808418.
          There are     1 degrees of freedom in the 1st order CPHF.  IDoFFX=0 NUNeed=     1.
 LinEq1:  Iter=  0 NonCon=     1 RMS=1.17D-01 Max=5.36D-01 NDo=     1
 AX will form     1 AO Fock derivatives at one time.
 LinEq1:  Iter=  1 NonCon=     1 RMS=1.90D-02 Max=6.64D-02 NDo=     1
 LinEq1:  Iter=  2 NonCon=     1 RMS=2.97D-03 Max=9.68D-03 NDo=     1
 LinEq1:  Iter=  3 NonCon=     1 RMS=3.13D-04 Max=9.12D-04 NDo=     1
 LinEq1:  Iter=  4 NonCon=     1 RMS=2.51D-05 Max=7.96D-05 NDo=     1
 LinEq1:  Iter=  5 NonCon=     1 RMS=1.08D-06 Max=4.15D-06 NDo=     1
 LinEq1:  Iter=  6 NonCon=     1 RMS=6.92D-08 Max=2.79D-07 NDo=     1
 LinEq1:  Iter=  7 NonCon=     1 RMS=3.27D-09 Max=1.07D-08 NDo=     1
 LinEq1:  Iter=  8 NonCon=     1 RMS=1.72D-10 Max=6.69D-10 NDo=     1
 LinEq1:  Iter=  9 NonCon=     0 RMS=5.65D-12 Max=2.06D-11 NDo=     1
 Linear equations converged to 1.000D-10 1.000D-09 after     9 iterations.
 End of Minotr F.D. properties file   721 does not exist.
 End of Minotr F.D. properties file   722 does not exist.
 End of Minotr F.D. properties file   788 does not exist.
 Calling FoFJK, ICntrl=  10005127 FMM=F ISym2X=1 I1Cent= 0 IOpClX= 0 NMat=1 NMatS=1 NMatT=0.
 ***** Axes restored to original set *****
 -------------------------------------------------------------------
 Center     Atomic                   Forces (Hartrees/Bohr)
 Number     Number              X              Y              Z
 -------------------------------------------------------------------
      1        6          -0.000948044   -0.001642750   -0.000000000
      2        1           0.001071667    0.001012953    0.000000000
      3        1           0.000340887    0.001434692    0.000000000
      4        8          -0.000464511   -0.000804895   -0.000000000
 -------------------------------------------------------------------
 Cartesian Forces:  Max     0.001642750 RMS     0.000856842

 GradGradGradGradGradGradGradGradGradGradGradGradGradGradGradGradGradGrad
 Berny optimization.
 Using GEDIIS/GDIIS optimizer.
 FormGI is forming the generalized inverse of G from B-inverse, IUseBI=4.
 Internal  Forces:  Max     0.001953697 RMS     0.000986400
 Search for a local minimum.
 Step number   3 out of a maximum of   20
 All quantities printed in internal units (Hartrees-Bohrs-Radians)
 Mixed Optimization -- En-DIIS/RFO-DIIS
 Update second derivatives using D2CorX and points    1    2    3
 DE= -5.63D-04 DEPred=-4.85D-04 R= 1.16D+00
 TightC=F SS=  1.41D+00  RLast= 7.49D-02 DXNew= 8.4853D-01 2.2472D-01
 Trust test= 1.16D+00 RLast= 7.49D-02 DXMaxT set to 5.05D-01
 The second derivative matrix:
                          R1        R2        R3        A1        A2
           R1           0.33743
           R2           0.00187   0.33743
           R3          -0.01221  -0.01221   1.04212
           A1           0.00581   0.00581  -0.03029   0.14035
           A2          -0.00290  -0.00290   0.01515   0.00983   0.15509
           A3          -0.00290  -0.00290   0.01515   0.00983  -0.00491
           D1          -0.00000  -0.00000   0.00000   0.00000  -0.00000
                          A3        D1
           A3           0.15509
           D1          -0.00000   0.04118
 ITU=  1  1  0
 Use linear search instead of GDIIS.
     Eigenvalues ---    0.04118   0.12860   0.16000   0.33556   0.33927
     Eigenvalues ---    1.04407
 RFO step:  Lambda=-2.45471158D-06 EMin= 4.11848468D-02
 Quartic linear search produced a step of  0.24043.
 Iteration  1 RMS(Cart)=  0.00645694 RMS(Int)=  0.00003225
 Iteration  2 RMS(Cart)=  0.00003110 RMS(Int)=  0.00000000
 Iteration  3 RMS(Cart)=  0.00000000 RMS(Int)=  0.00000000
 ClnCor:  largest displacement from symmetrization is 3.43D-09 for atom     1.
 Variable       Old X    -DE/DX   Delta X   Delta X   Delta X     New X
                                 (Linear)    (Quad)   (Total)
    R1        2.04002  -0.00033   0.00035  -0.00173  -0.00138   2.03864
    R2        2.04002  -0.00033   0.00035  -0.00173  -0.00138   2.03864
    R3        2.46537  -0.00093  -0.00085   0.00059  -0.00026   2.46512
    A1        2.10565   0.00195   0.01468   0.00062   0.01530   2.12096
    A2        2.08877  -0.00098  -0.00734  -0.00031  -0.00765   2.08112
    A3        2.08877  -0.00098  -0.00734  -0.00031  -0.00765   2.08112
    D1        3.14159   0.00000   0.00000   0.00000   0.00000   3.14159
         Item               Value     Threshold  Converged?
 Maximum Force            0.001954     0.000450     NO 
 RMS     Force            0.000986     0.000300     NO 
 Maximum Displacement     0.009469     0.001800     NO 
 RMS     Displacement     0.006448     0.001200     NO 
 Predicted change in Energy=-2.259698D-05
 GradGradGradGradGradGradGradGradGradGradGradGradGradGradGradGradGradGrad

                          Input orientation:                          
 ---------------------------------------------------------------------
 Center     Atomic      Atomic             Coordinates (Angstroms)
 Number     Number       Type             X           Y           Z
 ---------------------------------------------------------------------
      1          6           0       -0.530039   -0.417679    0.000000
      2          1           0        0.021889   -1.344603    0.000000
      3          1           0       -1.608749   -0.403549   -0.000000
      4          8           0        0.121997    0.712155   -0.000000
 ---------------------------------------------------------------------
                    Distance matrix (angstroms):
                    1          2          3          4
     1  C    0.000000
     2  H    1.078802   0.000000
     3  H    1.078802   1.882701   0.000000
     4  O    1.304483   2.059193   2.059193   0.000000
 Stoichiometry    CH2O
 Framework group  C2V[C2(CO),SGV(H2)]
 Deg. of freedom     3
 Full point group                 C2V     NOp   4
 Largest Abelian subgroup         C2V     NOp   4
 Largest concise Abelian subgroup C2      NOp   2
                         Standard orientation:                         
 ---------------------------------------------------------------------
 Center     Atomic      Atomic             Coordinates (Angstroms)
 Number     Number       Type             X           Y           Z
 ---------------------------------------------------------------------
      1          6           0       -0.000000   -0.000000   -0.586373
      2          1           0       -0.000000   -0.941350   -1.113320
      3          1           0        0.000000    0.941350   -1.113320
      4          8           0        0.000000    0.000000    0.718110
 ---------------------------------------------------------------------
 Rotational constants (GHZ):         282.9433348          34.3548537          30.6351477
 Standard basis: STO-3G (5D, 7F)
 There are     7 symmetry adapted cartesian basis functions of A1  symmetry.
 There are     0 symmetry adapted cartesian basis functions of A2  symmetry.
 There are     2 symmetry adapted cartesian basis functions of B1  symmetry.
 There are     3 symmetry adapted cartesian basis functions of B2  symmetry.
 There are     7 symmetry adapted basis functions of A1  symmetry.
 There are     0 symmetry adapted basis functions of A2  symmetry.
 There are     2 symmetry adapted basis functions of B1  symmetry.
 There are     3 symmetry adapted basis functions of B2  symmetry.
    12 basis functions,    36 primitive gaussians,    12 cartesian basis functions
     8 alpha electrons        8 beta electrons
       nuclear repulsion energy        29.7507776732 Hartrees.
 NAtoms=    4 NActive=    4 NUniq=    3 SFac= 1.78D+00 NAtFMM=   60 NAOKFM=F Big=F
 Integral buffers will be    131072 words long.
 Raffenetti 1 integral format.
 Two-electron integral symmetry is turned on.
 One-electron integrals computed using PRISM.
 NBasis=    12 RedAO= T EigKep=  2.58D-01  NBF=     7     0     2     3
 NBsUse=    12 1.00D-06 EigRej= -1.00D+00 NBFU=     7     0     2     3
 Initial guess from the checkpoint file:  "/rds/general/user/rk820/home/dibs-g16/fc_ht/formaldehyde/test1.chk"
 B after Tr=     0.000000   -0.000000   -0.000000
         Rot=    1.000000   -0.000000    0.000000    0.000000 Ang=   0.00 deg.
 Initial guess orbital symmetries:
       Occupied  (A1) (A1) (A1) (A1) (B2) (A1) (B1) (B2)
       Virtual   (B1) (A1) (B2) (A1)
 Keep R1 ints in memory in symmetry-blocked form, NReq=807829.
 Requested convergence on RMS density matrix=1.00D-08 within 128 cycles.
 Requested convergence on MAX density matrix=1.00D-06.
 Requested convergence on             energy=1.00D-06.
 No special actions if energy rises.
 SCF Done:  E(RHF) =  -112.339910873     A.U. after    8 cycles
            NFock=  8  Conv=0.20D-08     -V/T= 2.0093
 ExpMin= 1.69D-01 ExpMax= 1.31D+02 ExpMxC= 1.31D+02 IAcc=3 IRadAn=         5 AccDes= 0.00D+00
 HarFok:  IExCor=  205 AccDes= 0.00D+00 IRadAn=         5 IDoV=-2 UseB2=F ITyADJ=14
 ICtDFT= 12500011 ScaDFX=  1.000000  1.000000  1.000000  1.000000
 Range of M.O.s used for correlation:     3    12
 NBasis=    12 NAE=     8 NBE=     8 NFC=     2 NFV=     0
 NROrb=     10 NOA=     6 NOB=     6 NVA=     4 NVB=     4
 Keep R1, R2, and R3 ints in memory in symmetry-blocked form, NReq=808268.
 Orbital symmetries:
       Occupied  (A1) (A1) (A1) (A1) (B2) (A1) (B1) (B2)
       Virtual   (B1) (A1) (B2) (A1)
 Generating guess from densities on rwf.
 Convergence on wavefunction:    0.000001000000000
 Iteration     1 Dimension     4 NMult     0 NNew      4
 CISAX will form     4 AO SS matrices at one time.
 Iteration     2 Dimension     7 NMult     4 NNew      3
 Iteration     3 Dimension     8 NMult     7 NNew      1
 ***********************************************************************
 Excited states from <AA,BB:AA,BB> singles matrix:
 ***********************************************************************
 
 Ground to excited state transition densities written to RWF  633
 Ground to excited state transition electric dipole moments (Au):
       state          X           Y           Z        Dip. S.      Osc.
         1         0.0000      0.0000     -0.0000      0.0000      0.0000
         2         0.2067     -0.0000      0.0000      0.0427      0.0079
 Ground to excited state transition velocity dipole moments (Au):
       state          X           Y           Z        Dip. S.      Osc.
         1        -0.0000      0.0000     -0.0000      0.0000      0.0000
         2        -0.1449     -0.0000      0.0000      0.0210      0.0504
 Ground to excited state transition magnetic dipole moments (Au):
       state          X           Y           Z
         1         0.0000      0.0000      1.1794
         2        -0.0000     -1.8498      0.0000
 Ground to excited state transition velocity quadrupole moments (Au):
       state          XX          YY          ZZ          XY          XZ          YZ
         1        -0.0000      0.0000      0.0000      0.0230      0.0000     -0.0000
         2         0.0000     -0.0000     -0.0000     -0.0000     -0.0502      0.0000
 <0|del|b> * <b|rxdel|0> + <0|del|b> * <b|delr+rdel|0>
 Rotatory Strengths (R) in cgs (10**-40 erg-esu-cm/Gauss)
       state          XX          YY          ZZ    R(velocity)    E-M Angle
         1        -0.0000     -0.0000      0.0000     -0.0000       90.00
         2         0.0000     -0.0000      0.0000      0.0000       90.00
 1/2[<0|r|b>*<b|rxdel|0> + (<0|rxdel|b>*<b|r|0>)*]
 Rotatory Strengths (R) in cgs (10**-40 erg-esu-cm/Gauss)
       state          XX          YY          ZZ     R(length)
         1        -0.0000     -0.0000      0.0000      0.0000
         2         0.0000     -0.0000     -0.0000     -0.0000
  1/2[<0|del|b>*<b|r|0> + (<0|r|b>*<b|del|0>)*] (Au)
       state          X           Y           Z        Dip. S.   Osc.(frdel)
         1        -0.0000      0.0000      0.0000     -0.0000     -0.0000
         2        -0.0300      0.0000      0.0000      0.0300      0.0200

 Excitation energies and oscillator strengths:
 
 Excited State   1:      Singlet-A2     3.3193 eV  373.53 nm  f=0.0000  <S**2>=0.000
       5 ->  9         0.11911
       8 ->  9         0.70054
 This state for optimization and/or second-order correction.
 Total Energy, E(TD-HF/TD-DFT) =  -112.217930338    
 Copying the excited state density for this state as the 1-particle RhoCI density.
 
 Excited State   2:      Singlet-B1     7.5562 eV  164.08 nm  f=0.0079  <S**2>=0.000
       6 ->  9         0.70959
 SavETr:  write IOETrn=   770 NScale= 10 NData=  16 NLR=1 NState=    2 LETran=      46.
          IDoAtm=1111
          Differentiating once with respect to electric field.
                with respect to dipole field.
          Differentiating once with respect to nuclear coordinates.
 Keep R1 ints in memory in symmetry-blocked form, NReq=808418.
          There are     1 degrees of freedom in the 1st order CPHF.  IDoFFX=0 NUNeed=     1.
 LinEq1:  Iter=  0 NonCon=     1 RMS=1.17D-01 Max=5.35D-01 NDo=     1
 AX will form     1 AO Fock derivatives at one time.
 LinEq1:  Iter=  1 NonCon=     1 RMS=1.89D-02 Max=6.56D-02 NDo=     1
 LinEq1:  Iter=  2 NonCon=     1 RMS=2.97D-03 Max=9.74D-03 NDo=     1
 LinEq1:  Iter=  3 NonCon=     1 RMS=3.07D-04 Max=9.03D-04 NDo=     1
 LinEq1:  Iter=  4 NonCon=     1 RMS=2.42D-05 Max=7.71D-05 NDo=     1
 LinEq1:  Iter=  5 NonCon=     1 RMS=1.05D-06 Max=4.09D-06 NDo=     1
 LinEq1:  Iter=  6 NonCon=     1 RMS=6.72D-08 Max=2.76D-07 NDo=     1
 LinEq1:  Iter=  7 NonCon=     1 RMS=3.27D-09 Max=1.12D-08 NDo=     1
 LinEq1:  Iter=  8 NonCon=     1 RMS=1.64D-10 Max=6.54D-10 NDo=     1
 LinEq1:  Iter=  9 NonCon=     0 RMS=5.47D-12 Max=2.04D-11 NDo=     1
 Linear equations converged to 1.000D-10 1.000D-09 after     9 iterations.
 End of Minotr F.D. properties file   721 does not exist.
 End of Minotr F.D. properties file   722 does not exist.
 End of Minotr F.D. properties file   788 does not exist.
 Calling FoFJK, ICntrl=  10005127 FMM=F ISym2X=1 I1Cent= 0 IOpClX= 0 NMat=1 NMatS=1 NMatT=0.
 ***** Axes restored to original set *****
 -------------------------------------------------------------------
 Center     Atomic                   Forces (Hartrees/Bohr)
 Number     Number              X              Y              Z
 -------------------------------------------------------------------
      1        6           0.000011031    0.000019115   -0.000000000
      2        1           0.000123615   -0.000210067    0.000000000
      3        1          -0.000243732    0.000001932    0.000000000
      4        8           0.000109085    0.000189020   -0.000000000
 -------------------------------------------------------------------
 Cartesian Forces:  Max     0.000243732 RMS     0.000117945

 GradGradGradGradGradGradGradGradGradGradGradGradGradGradGradGradGradGrad
 Berny optimization.
 Using GEDIIS/GDIIS optimizer.
 FormGI is forming the generalized inverse of G from B-inverse, IUseBI=4.
 Internal  Forces:  Max     0.000243736 RMS     0.000154202
 Search for a local minimum.
 Step number   4 out of a maximum of   20
 All quantities printed in internal units (Hartrees-Bohrs-Radians)
 Mixed Optimization -- En-DIIS/RFO-DIIS
 Swapping is turned off.
 Update second derivatives using D2CorX and points    1    2    3    4
 DE= -2.26D-05 DEPred=-2.26D-05 R= 1.00D+00
 TightC=F SS=  1.41D+00  RLast= 1.88D-02 DXNew= 8.4853D-01 5.6542D-02
 Trust test= 1.00D+00 RLast= 1.88D-02 DXMaxT set to 5.05D-01
 The second derivative matrix:
                          R1        R2        R3        A1        A2
           R1           0.34153
           R2           0.00597   0.34153
           R3          -0.00644  -0.00644   1.05340
           A1          -0.00429  -0.00429  -0.03889   0.13756
           A2           0.00214   0.00214   0.01944   0.01122   0.15439
           A3           0.00214   0.00214   0.01944   0.01122  -0.00561
           D1          -0.00000  -0.00000   0.00000  -0.00000   0.00000
                          A3        D1
           A3           0.15439
           D1           0.00000   0.04118
 ITU=  1  1  1  0
     Eigenvalues ---    0.04118   0.12362   0.16000   0.33556   0.34767
     Eigenvalues ---    1.05595
 En-DIIS/RFO-DIIS/Sim-DIIS IScMMF=       -3 using points:     4    3
 RFO step:  Lambda=-3.83764001D-07.
 DidBck=F Rises=F RFO-DIIS coefs:    1.00097   -0.00097
 Iteration  1 RMS(Cart)=  0.00038752 RMS(Int)=  0.00000002
 Iteration  2 RMS(Cart)=  0.00000001 RMS(Int)=  0.00000000
 ClnCor:  largest displacement from symmetrization is 1.64D-14 for atom     3.
 Variable       Old X    -DE/DX   Delta X   Delta X   Delta X     New X
                                 (Linear)    (Quad)   (Total)
    R1        2.03864   0.00024  -0.00000   0.00071   0.00071   2.03935
    R2        2.03864   0.00024  -0.00000   0.00071   0.00071   2.03935
    R3        2.46512   0.00022  -0.00000   0.00022   0.00022   2.46534
    A1        2.12096  -0.00000   0.00001   0.00009   0.00010   2.12106
    A2        2.08112   0.00000  -0.00001  -0.00004  -0.00005   2.08106
    A3        2.08112   0.00000  -0.00001  -0.00004  -0.00005   2.08106
    D1        3.14159   0.00000  -0.00000   0.00000   0.00000   3.14159
         Item               Value     Threshold  Converged?
 Maximum Force            0.000244     0.000450     YES
 RMS     Force            0.000154     0.000300     YES
 Maximum Displacement     0.000670     0.001800     YES
 RMS     Displacement     0.000388     0.001200     YES
 Predicted change in Energy=-1.964606D-07
 Optimization completed.
    -- Stationary point found.
                           ----------------------------
                           !   Optimized Parameters   !
                           ! (Angstroms and Degrees)  !
 --------------------------                            --------------------------
 ! Name  Definition              Value          Derivative Info.                !
 --------------------------------------------------------------------------------
 ! R1    R(1,2)                  1.0788         -DE/DX =    0.0002              !
 ! R2    R(1,3)                  1.0788         -DE/DX =    0.0002              !
 ! R3    R(1,4)                  1.3045         -DE/DX =    0.0002              !
 ! A1    A(2,1,3)              121.5218         -DE/DX =    0.0                 !
 ! A2    A(2,1,4)              119.2391         -DE/DX =    0.0                 !
 ! A3    A(3,1,4)              119.2391         -DE/DX =    0.0                 !
 ! D1    D(2,1,4,3)            180.0            -DE/DX =    0.0                 !
 --------------------------------------------------------------------------------
 GradGradGradGradGradGradGradGradGradGradGradGradGradGradGradGradGradGrad

                          Input orientation:                          
 ---------------------------------------------------------------------
 Center     Atomic      Atomic             Coordinates (Angstroms)
 Number     Number       Type             X           Y           Z
 ---------------------------------------------------------------------
      1          6           0       -0.530039   -0.417679    0.000000
      2          1           0        0.021889   -1.344603    0.000000
      3          1           0       -1.608749   -0.403549   -0.000000
      4          8           0        0.121997    0.712155   -0.000000
 ---------------------------------------------------------------------
                    Distance matrix (angstroms):
                    1          2          3          4
     1  C    0.000000
     2  H    1.078802   0.000000
     3  H    1.078802   1.882701   0.000000
     4  O    1.304483   2.059193   2.059193   0.000000
 Stoichiometry    CH2O
 Framework group  C2V[C2(CO),SGV(H2)]
 Deg. of freedom     3
 Full point group                 C2V     NOp   4
 Largest Abelian subgroup         C2V     NOp   4
 Largest concise Abelian subgroup C2      NOp   2
                         Standard orientation:                         
 ---------------------------------------------------------------------
 Center     Atomic      Atomic             Coordinates (Angstroms)
 Number     Number       Type             X           Y           Z
 ---------------------------------------------------------------------
      1          6           0        0.000000   -0.000000   -0.586373
      2          1           0       -0.000000   -0.941350   -1.113320
      3          1           0        0.000000    0.941350   -1.113320
      4          8           0       -0.000000    0.000000    0.718110
 ---------------------------------------------------------------------
 Rotational constants (GHZ):         282.9433348          34.3548537          30.6351477

 **********************************************************************

            Population analysis using the CI Density.

 **********************************************************************

 Orbital symmetries:
       Occupied  (A1) (A1) (A1) (A1) (B2) (A1) (B1) (B2)
       Virtual   (B1) (A1) (B2) (A1)
 The electronic state is 1-A1.
 Alpha  occ. eigenvalues --  -20.29400 -11.10591  -1.28057  -0.81617  -0.62523
 Alpha  occ. eigenvalues --   -0.51730  -0.39560  -0.36047
 Alpha virt. eigenvalues --    0.25316   0.63179   0.77168   0.78869
          Condensed to atoms (all electrons):
               1          2          3          4
     1  C    5.068268   0.379247   0.379247   0.325838
     2  H    0.379247   0.578902  -0.021135  -0.014510
     3  H    0.379247  -0.021135   0.578902  -0.014510
     4  O    0.325838  -0.014510  -0.014510   7.705574
 Mulliken charges:
               1
     1  C   -0.152600
     2  H    0.077496
     3  H    0.077496
     4  O   -0.002393
 Sum of Mulliken charges =  -0.00000
 Mulliken charges with hydrogens summed into heavy atoms:
               1
     1  C    0.002393
     4  O   -0.002393
 Electronic spatial extent (au):  <R**2>=             61.0909
 Charge=             -0.0000 electrons
 Dipole moment (field-independent basis, Debye):
    X=              0.0000    Y=              0.0000    Z=             -0.3508  Tot=              0.3508
 Quadrupole moment (field-independent basis, Debye-Ang):
   XX=            -11.4365   YY=             -9.5028   ZZ=            -11.0860
   XY=              0.0000   XZ=             -0.0000   YZ=              0.0000
 Traceless Quadrupole moment (field-independent basis, Debye-Ang):
   XX=             -0.7614   YY=              1.1723   ZZ=             -0.4109
   XY=              0.0000   XZ=             -0.0000   YZ=              0.0000
 Octapole moment (field-independent basis, Debye-Ang**2):
  XXX=             -0.0000  YYY=             -0.0000  ZZZ=              3.2602  XYY=              0.0000
  XXY=             -0.0000  XXZ=              1.9319  XZZ=             -0.0000  YZZ=             -0.0000
  YYZ=              0.7442  XYZ=             -0.0000
 Hexadecapole moment (field-independent basis, Debye-Ang**3):
 XXXX=             -7.8058 YYYY=            -13.5841 ZZZZ=            -42.1052 XXXY=             -0.0000
 XXXZ=              0.0000 YYYX=             -0.0000 YYYZ=              0.0000 ZZZX=              0.0000
 ZZZY=              0.0000 XXYY=             -3.8659 XXZZ=             -8.7756 YYZZ=             -7.8503
 XXYZ=             -0.0000 YYXZ=             -0.0000 ZZXY=              0.0000
 N-N= 2.975077767317D+01 E-N=-3.243943666496D+02  KE= 1.113542959897D+02
 Symmetry A1   KE= 1.008763079080D+02
 Symmetry A2   KE= 0.000000000000D+00
 Symmetry B1   KE= 6.084791463401D+00
 Symmetry B2   KE= 4.393196618358D+00
 Unable to Open any file for archive entry.
 1\1\GINC-CX3-7-2\FOpt\RTD-FC\STO-3G\C1H2O1\RK820\22-Feb-2024\0\\# CIS/
 STO-3G CIS=(nstates=2, Root=1) geom=check Density=Current Opt\\HF/STO-
 3G for formaldehyde, calculating the first two excited states and opti
 mizing its geometry.\\0,1\C,-0.5300394412,-0.417678984,0.\H,0.02188925
 07,-1.344602886,0.\H,-1.6087486464,-0.4035491649,0.\O,0.121996589,0.71
 2155198,0.\\Version=ES64L-G16RevC.01\State=1-A1\HF=-112.3399109\RMSD=1
 .993e-09\RMSF=1.179e-04\Dipole=0.,0.,-0.1380291\Quadrupole=-0.5660923,
 0.8715616,-0.3054694,0.,0.,0.\PG=C02V [C2(C1O1),SGV(H2)]\\@
 The archive entry for this job was punched.


 In the beginning there was nothing, which exploded.
 Job cpu time:       0 days  0 hours  0 minutes  4.4 seconds.
 Elapsed time:       0 days  0 hours  0 minutes  4.8 seconds.
 File lengths (MBytes):  RWF=      6 Int=      0 D2E=      0 Chk=     16 Scr=      1
 Normal termination of Gaussian 16 at Thu Feb 22 14:46:43 2024.
