 Entering Gaussian System, Link 0=g16
 Input=az_states.gjf
 Output=az_states.log
 Initial command:
 /apps/gaussian/g16-c01-avx2/g16/l1.exe "/var/tmp/pbs.9326170.pbs/Gau-557436.inp" -scrdir="/var/tmp/pbs.9326170.pbs/"
 Entering Link 1 = /apps/gaussian/g16-c01-avx2/g16/l1.exe PID=    557447.
  
 Copyright (c) 1988-2019, Gaussian, Inc.  All Rights Reserved.
  
 This is part of the Gaussian(R) 16 program.  It is based on
 the Gaussian(R) 09 system (copyright 2009, Gaussian, Inc.),
 the Gaussian(R) 03 system (copyright 2003, Gaussian, Inc.),
 the Gaussian(R) 98 system (copyright 1998, Gaussian, Inc.),
 the Gaussian(R) 94 system (copyright 1995, Gaussian, Inc.),
 the Gaussian 92(TM) system (copyright 1992, Gaussian, Inc.),
 the Gaussian 90(TM) system (copyright 1990, Gaussian, Inc.),
 the Gaussian 88(TM) system (copyright 1988, Gaussian, Inc.),
 the Gaussian 86(TM) system (copyright 1986, Carnegie Mellon
 University), and the Gaussian 82(TM) system (copyright 1983,
 Carnegie Mellon University). Gaussian is a federally registered
 trademark of Gaussian, Inc.
  
 This software contains proprietary and confidential information,
 including trade secrets, belonging to Gaussian, Inc.
  
 This software is provided under written license and may be
 used, copied, transmitted, or stored only in accord with that
 written license.
  
 The following legend is applicable only to US Government
 contracts under FAR:
  
                    RESTRICTED RIGHTS LEGEND
  
 Use, reproduction and disclosure by the US Government is
 subject to restrictions as set forth in subparagraphs (a)
 and (c) of the Commercial Computer Software - Restricted
 Rights clause in FAR 52.227-19.
  
 Gaussian, Inc.
 340 Quinnipiac St., Bldg. 40, Wallingford CT 06492
  
  
 ---------------------------------------------------------------
 Warning -- This program may not be used in any manner that
 competes with the business of Gaussian, Inc. or will provide
 assistance to any competitor of Gaussian, Inc.  The licensee
 of this program is prohibited from giving any competitor of
 Gaussian, Inc. access to this program.  By using this program,
 the user acknowledges that Gaussian, Inc. is engaged in the
 business of creating and licensing software in the field of
 computational chemistry and represents and warrants to the
 licensee that it is not a competitor of Gaussian, Inc. and that
 it will not use this program in any manner prohibited above.
 ---------------------------------------------------------------
  

 Cite this work as:
 Gaussian 16, Revision C.01,
 M. J. Frisch, G. W. Trucks, H. B. Schlegel, G. E. Scuseria, 
 M. A. Robb, J. R. Cheeseman, G. Scalmani, V. Barone, 
 G. A. Petersson, H. Nakatsuji, X. Li, M. Caricato, A. V. Marenich, 
 J. Bloino, B. G. Janesko, R. Gomperts, B. Mennucci, H. P. Hratchian, 
 J. V. Ortiz, A. F. Izmaylov, J. L. Sonnenberg, D. Williams-Young, 
 F. Ding, F. Lipparini, F. Egidi, J. Goings, B. Peng, A. Petrone, 
 T. Henderson, D. Ranasinghe, V. G. Zakrzewski, J. Gao, N. Rega, 
 G. Zheng, W. Liang, M. Hada, M. Ehara, K. Toyota, R. Fukuda, 
 J. Hasegawa, M. Ishida, T. Nakajima, Y. Honda, O. Kitao, H. Nakai, 
 T. Vreven, K. Throssell, J. A. Montgomery, Jr., J. E. Peralta, 
 F. Ogliaro, M. J. Bearpark, J. J. Heyd, E. N. Brothers, K. N. Kudin, 
 V. N. Staroverov, T. A. Keith, R. Kobayashi, J. Normand, 
 K. Raghavachari, A. P. Rendell, J. C. Burant, S. S. Iyengar, 
 J. Tomasi, M. Cossi, J. M. Millam, M. Klene, C. Adamo, R. Cammi, 
 J. W. Ochterski, R. L. Martin, K. Morokuma, O. Farkas, 
 J. B. Foresman, and D. J. Fox, Gaussian, Inc., Wallingford CT, 2019.
 
 ******************************************
 Gaussian 16:  ES64L-G16RevC.01  3-Jul-2019
                24-Apr-2024 
 ******************************************
 %chk=az_s0.chk
 %NProcShared=32
 Will use up to   32 processors via shared memory.
 %Mem=256GB
 ------------------------------------------------
 #p CAM-B3LYP/def2tzvp geom=connectivity opt freq
 ------------------------------------------------
 1/18=20,19=15,26=3,38=1,57=2/1,3;
 2/9=110,12=2,17=6,18=5,40=1/2;
 3/5=44,7=101,11=2,25=1,30=1,71=1,74=-40/1,2,3;
 4//1;
 5/5=2,38=5/2;
 6/7=2,8=2,9=2,10=2,28=1/1;
 7//1,2,3,16;
 1/18=20,19=15,26=3/3(2);
 2/9=110/2;
 99//99;
 2/9=110/2;
 3/5=44,7=101,11=2,25=1,30=1,71=1,74=-40/1,2,3;
 4/5=5,16=3,69=1/1;
 5/5=2,38=5/2;
 7//1,2,3,16;
 1/18=20,19=15,26=3/3(-5);
 2/9=110/2;
 6/7=2,8=2,9=2,10=2,19=2,28=1/1;
 99/9=1/99;
 Leave Link    1 at Wed Apr 24 16:29:02 2024, MaxMem= 34359738368 cpu:               0.7 elap:               0.0
 (Enter /apps/gaussian/g16-c01-avx2/g16/l101.exe)
 ----------------------------------------------------------------------
 Investigation of Azulene step 1: ground state optimization and frequen
 cy calculation.
 ----------------------------------------------------------------------
 Symbolic Z-matrix:
 Charge =  0 Multiplicity = 1
 C                    -1.58497   0.6383   -0.02075 
 C                    -0.22424   0.6383   -0.02075 
 C                     0.66448   1.74038  -0.02075 
 C                    -2.48977   1.72722  -0.01994 
 C                     0.35715   3.06166  -0.02048 
 C                    -2.22894   3.06186  -0.01906 
 C                    -0.97676   3.71267  -0.01939 
 H                    -2.07565  -0.35732  -0.02133 
 H                     0.27378  -0.35184  -0.02109 
 H                     1.74174   1.475    -0.02116 
 H                    -3.55811   1.4315   -0.01984 
 H                    -3.10188   3.74703  -0.01817 
 C                     1.32864   4.14823  -0.02082 
 H                     2.40548   3.99499  -0.02181 
 C                     0.64868   5.34989  -0.01983 
 H                     1.08552   6.34769  -0.01977 
 C                    -0.77224   5.0894   -0.01894 
 H                    -1.54128   5.85866  -0.018 
 
 ITRead=  0  0  0  0  0  0  0  0  0  0  0  0  0  0  0  0  0  0
 MicOpt= -1 -1 -1 -1 -1 -1 -1 -1 -1 -1 -1 -1 -1 -1 -1 -1 -1 -1
 NAtoms=     18 NQM=       18 NQMF=       0 NMMI=      0 NMMIF=      0
                NMic=       0 NMicF=      0.
                    Isotopes and Nuclear Properties:
 (Nuclear quadrupole moments (NQMom) in fm**2, nuclear magnetic moments (NMagM)
  in nuclear magnetons)

  Atom         1           2           3           4           5           6           7           8           9          10
 IAtWgt=          12          12          12          12          12          12          12           1           1           1
 AtmWgt=  12.0000000  12.0000000  12.0000000  12.0000000  12.0000000  12.0000000  12.0000000   1.0078250   1.0078250   1.0078250
 NucSpn=           0           0           0           0           0           0           0           1           1           1
 AtZEff=  -0.0000000  -0.0000000  -0.0000000  -0.0000000  -0.0000000  -0.0000000  -0.0000000  -0.0000000  -0.0000000  -0.0000000
 NQMom=    0.0000000   0.0000000   0.0000000   0.0000000   0.0000000   0.0000000   0.0000000   0.0000000   0.0000000   0.0000000
 NMagM=    0.0000000   0.0000000   0.0000000   0.0000000   0.0000000   0.0000000   0.0000000   2.7928460   2.7928460   2.7928460
 AtZNuc=   6.0000000   6.0000000   6.0000000   6.0000000   6.0000000   6.0000000   6.0000000   1.0000000   1.0000000   1.0000000

  Atom        11          12          13          14          15          16          17          18
 IAtWgt=           1           1          12           1          12           1          12           1
 AtmWgt=   1.0078250   1.0078250  12.0000000   1.0078250  12.0000000   1.0078250  12.0000000   1.0078250
 NucSpn=           1           1           0           1           0           1           0           1
 AtZEff=  -0.0000000  -0.0000000  -0.0000000  -0.0000000  -0.0000000  -0.0000000  -0.0000000  -0.0000000
 NQMom=    0.0000000   0.0000000   0.0000000   0.0000000   0.0000000   0.0000000   0.0000000   0.0000000
 NMagM=    2.7928460   2.7928460   0.0000000   2.7928460   0.0000000   2.7928460   0.0000000   2.7928460
 AtZNuc=   1.0000000   1.0000000   6.0000000   1.0000000   6.0000000   1.0000000   6.0000000   1.0000000
 Leave Link  101 at Wed Apr 24 16:29:03 2024, MaxMem= 34359738368 cpu:               6.4 elap:               0.2
 (Enter /apps/gaussian/g16-c01-avx2/g16/l103.exe)

 GradGradGradGradGradGradGradGradGradGradGradGradGradGradGradGradGradGrad
 Berny optimization.
 Initialization pass.
                           ----------------------------
                           !    Initial Parameters    !
                           ! (Angstroms and Degrees)  !
 --------------------------                            --------------------------
 ! Name  Definition              Value          Derivative Info.                !
 --------------------------------------------------------------------------------
 ! R1    R(1,2)                  1.3607         estimate D2E/DX2                !
 ! R2    R(1,4)                  1.4158         estimate D2E/DX2                !
 ! R3    R(1,8)                  1.11           estimate D2E/DX2                !
 ! R4    R(2,3)                  1.4158         estimate D2E/DX2                !
 ! R5    R(2,9)                  1.1083         estimate D2E/DX2                !
 ! R6    R(3,5)                  1.3565         estimate D2E/DX2                !
 ! R7    R(3,10)                 1.1095         estimate D2E/DX2                !
 ! R8    R(4,6)                  1.3599         estimate D2E/DX2                !
 ! R9    R(4,11)                 1.1085         estimate D2E/DX2                !
 ! R10   R(5,7)                  1.4843         estimate D2E/DX2                !
 ! R11   R(5,13)                 1.4575         estimate D2E/DX2                !
 ! R12   R(6,7)                  1.4112         estimate D2E/DX2                !
 ! R13   R(6,12)                 1.1097         estimate D2E/DX2                !
 ! R14   R(7,17)                 1.3918         estimate D2E/DX2                !
 ! R15   R(13,14)                1.0877         estimate D2E/DX2                !
 ! R16   R(13,15)                1.3807         estimate D2E/DX2                !
 ! R17   R(15,16)                1.0892         estimate D2E/DX2                !
 ! R18   R(15,17)                1.4446         estimate D2E/DX2                !
 ! R19   R(17,18)                1.0877         estimate D2E/DX2                !
 ! A1    A(2,1,4)              129.7237         estimate D2E/DX2                !
 ! A2    A(2,1,8)              116.2359         estimate D2E/DX2                !
 ! A3    A(4,1,8)              114.0405         estimate D2E/DX2                !
 ! A4    A(1,2,3)              128.8828         estimate D2E/DX2                !
 ! A5    A(1,2,9)              116.7012         estimate D2E/DX2                !
 ! A6    A(3,2,9)              114.416          estimate D2E/DX2                !
 ! A7    A(2,3,5)              128.0227         estimate D2E/DX2                !
 ! A8    A(2,3,10)             115.0433         estimate D2E/DX2                !
 ! A9    A(5,3,10)             116.934          estimate D2E/DX2                !
 ! A10   A(1,4,6)              129.2184         estimate D2E/DX2                !
 ! A11   A(1,4,11)             114.2518         estimate D2E/DX2                !
 ! A12   A(6,4,11)             116.5297         estimate D2E/DX2                !
 ! A13   A(3,5,7)              129.1091         estimate D2E/DX2                !
 ! A14   A(3,5,13)             125.1058         estimate D2E/DX2                !
 ! A15   A(7,5,13)             105.7851         estimate D2E/DX2                !
 ! A16   A(4,6,7)              128.5204         estimate D2E/DX2                !
 ! A17   A(4,6,12)             117.0702         estimate D2E/DX2                !
 ! A18   A(7,6,12)             114.4094         estimate D2E/DX2                !
 ! A19   A(5,7,6)              126.5229         estimate D2E/DX2                !
 ! A20   A(5,7,17)             107.5648         estimate D2E/DX2                !
 ! A21   A(6,7,17)             125.9123         estimate D2E/DX2                !
 ! A22   A(5,13,14)            123.7007         estimate D2E/DX2                !
 ! A23   A(5,13,15)            108.6969         estimate D2E/DX2                !
 ! A24   A(14,13,15)           127.6024         estimate D2E/DX2                !
 ! A25   A(13,15,16)           126.8525         estimate D2E/DX2                !
 ! A26   A(13,15,17)           109.115          estimate D2E/DX2                !
 ! A27   A(16,15,17)           124.0325         estimate D2E/DX2                !
 ! A28   A(7,17,15)            108.8383         estimate D2E/DX2                !
 ! A29   A(7,17,18)            126.5577         estimate D2E/DX2                !
 ! A30   A(15,17,18)           124.604          estimate D2E/DX2                !
 ! D1    D(4,1,2,3)             -0.0424         estimate D2E/DX2                !
 ! D2    D(4,1,2,9)            179.9772         estimate D2E/DX2                !
 ! D3    D(8,1,2,3)            179.9667         estimate D2E/DX2                !
 ! D4    D(8,1,2,9)             -0.0138         estimate D2E/DX2                !
 ! D5    D(2,1,4,6)              0.0054         estimate D2E/DX2                !
 ! D6    D(2,1,4,11)          -179.9819         estimate D2E/DX2                !
 ! D7    D(8,1,4,6)            179.9965         estimate D2E/DX2                !
 ! D8    D(8,1,4,11)             0.0092         estimate D2E/DX2                !
 ! D9    D(1,2,3,5)              0.0145         estimate D2E/DX2                !
 ! D10   D(1,2,3,10)          -179.9765         estimate D2E/DX2                !
 ! D11   D(9,2,3,5)            179.9953         estimate D2E/DX2                !
 ! D12   D(9,2,3,10)             0.0044         estimate D2E/DX2                !
 ! D13   D(2,3,5,7)              0.036          estimate D2E/DX2                !
 ! D14   D(2,3,5,13)          -179.9847         estimate D2E/DX2                !
 ! D15   D(10,3,5,7)          -179.9732         estimate D2E/DX2                !
 ! D16   D(10,3,5,13)            0.0061         estimate D2E/DX2                !
 ! D17   D(1,4,6,7)              0.0355         estimate D2E/DX2                !
 ! D18   D(1,4,6,12)          -179.9796         estimate D2E/DX2                !
 ! D19   D(11,4,6,7)          -179.9775         estimate D2E/DX2                !
 ! D20   D(11,4,6,12)            0.0074         estimate D2E/DX2                !
 ! D21   D(3,5,7,6)             -0.0338         estimate D2E/DX2                !
 ! D22   D(3,5,7,17)           179.9743         estimate D2E/DX2                !
 ! D23   D(13,5,7,6)           179.9838         estimate D2E/DX2                !
 ! D24   D(13,5,7,17)           -0.0082         estimate D2E/DX2                !
 ! D25   D(3,5,13,14)            0.0309         estimate D2E/DX2                !
 ! D26   D(3,5,13,15)         -179.9755         estimate D2E/DX2                !
 ! D27   D(7,5,13,14)         -179.9858         estimate D2E/DX2                !
 ! D28   D(7,5,13,15)            0.0078         estimate D2E/DX2                !
 ! D29   D(4,6,7,5)             -0.0162         estimate D2E/DX2                !
 ! D30   D(4,6,7,17)           179.9742         estimate D2E/DX2                !
 ! D31   D(12,6,7,5)           179.9985         estimate D2E/DX2                !
 ! D32   D(12,6,7,17)           -0.011          estimate D2E/DX2                !
 ! D33   D(5,7,17,15)            0.0056         estimate D2E/DX2                !
 ! D34   D(5,7,17,18)         -179.9909         estimate D2E/DX2                !
 ! D35   D(6,7,17,15)         -179.9864         estimate D2E/DX2                !
 ! D36   D(6,7,17,18)            0.0171         estimate D2E/DX2                !
 ! D37   D(5,13,15,16)         179.9991         estimate D2E/DX2                !
 ! D38   D(5,13,15,17)          -0.0046         estimate D2E/DX2                !
 ! D39   D(14,13,15,16)         -0.0075         estimate D2E/DX2                !
 ! D40   D(14,13,15,17)        179.9887         estimate D2E/DX2                !
 ! D41   D(13,15,17,7)          -0.0007         estimate D2E/DX2                !
 ! D42   D(13,15,17,18)        179.9959         estimate D2E/DX2                !
 ! D43   D(16,15,17,7)         179.9957         estimate D2E/DX2                !
 ! D44   D(16,15,17,18)         -0.0077         estimate D2E/DX2                !
 --------------------------------------------------------------------------------
 Trust Radius=3.00D-01 FncErr=1.00D-07 GrdErr=1.00D-06 EigMax=2.50D+02 EigMin=1.00D-04
 Number of steps in this run=    103 maximum allowed number of steps=    108.
 GradGradGradGradGradGradGradGradGradGradGradGradGradGradGradGradGradGrad

 Leave Link  103 at Wed Apr 24 16:29:03 2024, MaxMem= 34359738368 cpu:               0.5 elap:               0.0
 (Enter /apps/gaussian/g16-c01-avx2/g16/l202.exe)
                          Input orientation:                          
 ---------------------------------------------------------------------
 Center     Atomic      Atomic             Coordinates (Angstroms)
 Number     Number       Type             X           Y           Z
 ---------------------------------------------------------------------
      1          6           0       -1.584971    0.638298   -0.020748
      2          6           0       -0.224241    0.638298   -0.020748
      3          6           0        0.664484    1.740385   -0.020748
      4          6           0       -2.489770    1.727218   -0.019943
      5          6           0        0.357148    3.061658   -0.020478
      6          6           0       -2.228941    3.061865   -0.019055
      7          6           0       -0.976758    3.712669   -0.019388
      8          1           0       -2.075649   -0.357317   -0.021327
      9          1           0        0.273775   -0.351843   -0.021086
     10          1           0        1.741744    1.474997   -0.021161
     11          1           0       -3.558115    1.431505   -0.019842
     12          1           0       -3.101879    3.747028   -0.018174
     13          6           0        1.328641    4.148226   -0.020816
     14          1           0        2.405477    3.994990   -0.021811
     15          6           0        0.648675    5.349895   -0.019828
     16          1           0        1.085516    6.347691   -0.019772
     17          6           0       -0.772236    5.089405   -0.018935
     18          1           0       -1.541284    5.858656   -0.018003
 ---------------------------------------------------------------------
                    Distance matrix (angstroms):
                    1          2          3          4          5
     1  C    0.000000
     2  C    1.360730   0.000000
     3  C    2.504924   1.415778   0.000000
     4  C    1.415771   2.513637   3.154282   0.000000
     5  C    3.105560   2.492125   1.356546   3.144149   0.000000
     6  C    2.507664   3.145235   3.180915   1.359895   2.586089
     7  C    3.133956   3.165129   2.565849   2.496241   1.484292
     8  H    1.109961   2.102133   3.450896   2.125273   4.196176
     9  H    2.106019   1.108332   2.128396   3.458277   3.414519
    10  H    3.430320   2.136624   1.109468   4.239024   2.105849
    11  H    2.126611   3.426937   4.233881   1.108516   4.241071
    12  H    3.459078   4.236155   4.267565   2.110524   3.526274
    13  C    4.561659   3.838103   2.497760   4.521232   1.457542
    14  H    5.214505   4.264129   2.848561   5.395020   2.250947
    15  C    5.214242   4.791777   3.609545   4.793081   2.306733
    16  H    6.303068   5.857699   4.626504   5.842212   3.365789
    17  C    4.524698   4.484714   3.644188   3.775477   2.321049
    18  H    5.220542   5.383934   4.671785   4.238916   3.380421
                    6          7          8          9         10
     6  C    0.000000
     7  C    1.411208   0.000000
     8  H    3.422617   4.215727   0.000000
     9  H    4.232847   4.252540   2.349430   0.000000
    10  H    4.276037   3.520999   4.234367   2.343561   0.000000
    11  H    2.103516   3.444868   2.323272   4.226549   5.300038
    12  H    1.109716   2.125399   4.230698   5.309971   5.350030
    13  C    3.719754   2.346183   5.647044   4.622052   2.704960
    14  H    4.727426   3.393998   6.246845   4.841396   2.605937
    15  C    3.676378   2.307063   6.324098   5.714050   4.026119
    16  H    4.667149   3.346090   7.412833   6.748532   4.916684
    17  C    2.496579   1.391845   5.600506   5.540877   4.402732
    18  H    2.880089   2.218998   6.238900   6.470297   5.476746
                   11         12         13         14         15
    11  H    0.000000
    12  H    2.360043   0.000000
    13  C    5.591150   4.448649   0.000000
    14  H    6.491216   5.512936   1.087685   0.000000
    15  C    5.748988   4.078706   1.380711   2.218586   0.000000
    16  H    6.762558   4.929273   2.212862   2.697685   1.089232
    17  C    4.597973   2.688720   2.302066   3.360895   1.444591
    18  H    4.864903   2.625725   3.340965   4.364652   2.248280
                   16         17         18
    16  H    0.000000
    17  C    2.243775   0.000000
    18  H    2.671935   1.087742   0.000000
 Stoichiometry    C10H8
 Framework group  C1[X(C10H8)]
 Deg. of freedom    48
 Full point group                 C1      NOp   1
 Largest Abelian subgroup         C1      NOp   1
 Largest concise Abelian subgroup C1      NOp   1
                         Standard orientation:                         
 ---------------------------------------------------------------------
 Center     Atomic      Atomic             Coordinates (Angstroms)
 Number     Number       Type             X           Y           Z
 ---------------------------------------------------------------------
      1          6           0        2.492270   -0.037614    0.000299
      2          6           0        1.900978   -1.263159   -0.000313
      3          6           0        0.522194   -1.584690   -0.000302
      4          6           0        1.904703    1.250475    0.000307
      5          6           0       -0.534264   -0.733741    0.000059
      6          6           0        0.589309    1.595517   -0.000201
      7          6           0       -0.540963    0.750536   -0.000188
      8          1           0        3.602193   -0.028319    0.000728
      9          1           0        2.576343   -2.141954   -0.000568
     10          1           0        0.293104   -2.670249   -0.000472
     11          1           0        2.635277    2.084183    0.000576
     12          1           0        0.351542    2.679462   -0.000434
     13          6           0       -1.935037   -1.136561    0.000365
     14          1           0       -2.264953   -2.173004    0.000819
     15          6           0       -2.721850   -0.001974    0.000131
     16          1           0       -3.810342    0.038167    0.000250
     17          6           0       -1.869796    1.164580   -0.000220
     18          1           0       -2.228442    2.191496   -0.000520
 ---------------------------------------------------------------------
 Rotational constants (GHZ):           2.8611931           1.2528776           0.8713328
 Leave Link  202 at Wed Apr 24 16:29:04 2024, MaxMem= 34359738368 cpu:               0.5 elap:               0.0
 (Enter /apps/gaussian/g16-c01-avx2/g16/l301.exe)
 Standard basis: def2TZVP (5D, 7F)
 Ernie: Thresh=  0.10000D-02 Tol=  0.10000D-05 Strict=F.
 There are   408 symmetry adapted cartesian basis functions of A   symmetry.
 There are   358 symmetry adapted basis functions of A   symmetry.
   358 basis functions,   574 primitive gaussians,   408 cartesian basis functions
    34 alpha electrons       34 beta electrons
       nuclear repulsion energy       453.5602689767 Hartrees.
 IExCor=20419 DFT=T Ex+Corr=CAM-B3LYP ExCW=0 ScaHFX=  1.000000
 ScaDFX=  1.000000  1.000000  1.000000  0.810000 ScalE2=  1.000000  1.000000
 IRadAn=      5 IRanWt=     -1 IRanGd=            0 ICorTp=0 IEmpDi=  4
 HFx  wShort=  0.000000 wLong=  0.330000 cFull=  0.190000 cShort=  0.000000 cLong=  0.460000
 DFx  wShort=  0.000000 wLong=  0.330000 cFull=  0.190000 cShort=  0.000000 cLong=  0.460000
 NAtoms=   18 NActive=   18 NUniq=   18 SFac= 1.00D+00 NAtFMM=   60 NAOKFM=F Big=F
 Integral buffers will be    131072 words long.
 Raffenetti 2 integral format.
 Two-electron integral symmetry is turned on.
 Leave Link  301 at Wed Apr 24 16:29:05 2024, MaxMem= 34359738368 cpu:               1.2 elap:               0.1
 (Enter /apps/gaussian/g16-c01-avx2/g16/l302.exe)
 NPDir=0 NMtPBC=     1 NCelOv=     1 NCel=       1 NClECP=     1 NCelD=      1
         NCelK=      1 NCelE2=     1 NClLst=     1 CellRange=     0.0.
 One-electron integrals computed using PRISM.
 One-electron integral symmetry used in STVInt
   1 Symmetry operations used in ECPInt.
 ECPInt:  NShTT=   10153 NPrTT=   31120 LenC2=    9880 LenP2D=   23856.
 LDataN:  DoStor=T MaxTD1= 6 Len=  172
 NBasis=   358 RedAO= T EigKep=  1.55D-05  NBF=   358
 NBsUse=   358 1.00D-06 EigRej= -1.00D+00 NBFU=   358
 Precomputing XC quadrature grid using
 IXCGrd= 4 IRadAn=           5 IRanWt=          -1 IRanGd=           0 AccXCQ= 0.00D+00.
 Generated NRdTot=       0 NPtTot=           0 NUsed=           0 NTot=          32
 NSgBfM=   406   406   406   406   406 MxSgAt=    18 MxSgA2=    18.
 Leave Link  302 at Wed Apr 24 16:29:05 2024, MaxMem= 34359738368 cpu:               8.6 elap:               0.3
 (Enter /apps/gaussian/g16-c01-avx2/g16/l303.exe)
 DipDrv:  MaxL=1.
 Leave Link  303 at Wed Apr 24 16:29:06 2024, MaxMem= 34359738368 cpu:               0.9 elap:               0.1
 (Enter /apps/gaussian/g16-c01-avx2/g16/l401.exe)
 ExpMin= 9.52D-02 ExpMax= 1.36D+04 ExpMxC= 4.63D+02 IAcc=3 IRadAn=         5 AccDes= 0.00D+00
 Harris functional with IExCor=20419 and IRadAn=       5 diagonalized for initial guess.
 HarFok:  IExCor=20419 AccDes= 0.00D+00 IRadAn=         5 IDoV= 1 UseB2=F ITyADJ=14
 ICtDFT=  3500011 ScaDFX=  1.000000  1.000000  1.000000  1.000000
 FoFCou: FMM=F IPFlag=           0 FMFlag=      100000 FMFlg1=           0
         NFxFlg=           0 DoJE=T BraDBF=F KetDBF=T FulRan=T
         wScrn=  0.000000 ICntrl=       500 IOpCl=  0 I1Cent=   200000004 NGrid=           0
         NMat0=    1 NMatS0=      1 NMatT0=    0 NMatD0=    1 NMtDS0=    0 NMtDT0=    0
 Petite list used in FoFCou.
 Harris En= -369.920173400071    
 JPrj=0 DoOrth=F DoCkMO=F.
 Leave Link  401 at Wed Apr 24 16:29:07 2024, MaxMem= 34359738368 cpu:              20.5 elap:               0.7
 (Enter /apps/gaussian/g16-c01-avx2/g16/l502.exe)
 Integral symmetry usage will be decided dynamically.
 Closed shell SCF:
 Using DIIS extrapolation, IDIIS=  1040.
 NGot= 34359738368 LenX= 34359388334 LenY= 34359221429
 Requested convergence on RMS density matrix=1.00D-08 within 128 cycles.
 Requested convergence on MAX density matrix=1.00D-06.
 Requested convergence on             energy=1.00D-06.
 No special actions if energy rises.
 Fock matrices will be formed incrementally for  20 cycles.
 Integral accuracy reduced to 1.0D-05 until final iterations.

 Cycle   1  Pass 0  IDiag  1:
 FoFJK:  IHMeth= 1 ICntrl=       0 DoSepK=T KAlg= 0 I1Cent=           0 FoldK=F
 IRaf=         1 NMat=       1 IRICut=       1 DoRegI=T DoRafI=F ISym2E= 0 IDoP0=0 IntGTp=1.
 FoFCou: FMM=F IPFlag=           0 FMFlag=      100000 FMFlg1=           0
         NFxFlg=           0 DoJE=T BraDBF=F KetDBF=F FulRan=T
         wScrn=  0.000000 ICntrl=       500 IOpCl=  0 I1Cent=           0 NGrid=           0
         NMat0=    1 NMatS0=      1 NMatT0=    0 NMatD0=    1 NMtDS0=    0 NMtDT0=    0
 Symmetry not used in FoFCou.
 E= -385.647851824873    
 DIIS: error= 3.74D-02 at cycle   1 NSaved=   1.
 NSaved= 1 IEnMin= 1 EnMin= -385.647851824873     IErMin= 1 ErrMin= 3.74D-02
 ErrMax= 3.74D-02  0.00D+00 EMaxC= 1.00D-01 BMatC= 6.43D-01 BMatP= 6.43D-01
 IDIUse=3 WtCom= 6.26D-01 WtEn= 3.74D-01
 Coeff-Com:  0.100D+01
 Coeff-En:   0.100D+01
 Coeff:      0.100D+01
 Gap=     0.188 Goal=   None    Shift=    0.000
 GapD=    0.188 DampG=1.000 DampE=0.500 DampFc=0.5000 IDamp=-1.
 Damping current iteration by 5.00D-01
 RMSDP=1.55D-03 MaxDP=4.47D-02              OVMax= 8.81D-02

 Cycle   2  Pass 0  IDiag  1:
 RMSU=  7.34D-04    CP:  9.70D-01
 E= -385.691557681239     Delta-E=       -0.043705856365 Rises=F Damp=T
 DIIS: error= 1.75D-02 at cycle   2 NSaved=   2.
 NSaved= 2 IEnMin= 2 EnMin= -385.691557681239     IErMin= 2 ErrMin= 1.75D-02
 ErrMax= 1.75D-02  0.00D+00 EMaxC= 1.00D-01 BMatC= 1.43D-01 BMatP= 6.43D-01
 IDIUse=3 WtCom= 8.25D-01 WtEn= 1.75D-01
 Coeff-Com: -0.817D+00 0.182D+01
 Coeff-En:   0.000D+00 0.100D+01
 Coeff:     -0.674D+00 0.167D+01
 Gap=     0.224 Goal=   None    Shift=    0.000
 RMSDP=9.54D-04 MaxDP=3.81D-02 DE=-4.37D-02 OVMax= 9.18D-02

 Cycle   3  Pass 0  IDiag  1:
 RMSU=  6.71D-04    CP:  9.40D-01  1.86D+00
 E= -385.719094909618     Delta-E=       -0.027537228380 Rises=F Damp=F
 DIIS: error= 1.23D-02 at cycle   3 NSaved=   3.
 NSaved= 3 IEnMin= 3 EnMin= -385.719094909618     IErMin= 3 ErrMin= 1.23D-02
 ErrMax= 1.23D-02  0.00D+00 EMaxC= 1.00D-01 BMatC= 1.50D-02 BMatP= 1.43D-01
 IDIUse=3 WtCom= 8.77D-01 WtEn= 1.23D-01
 Coeff-Com: -0.426D+00 0.915D+00 0.511D+00
 Coeff-En:   0.000D+00 0.000D+00 0.100D+01
 Coeff:     -0.374D+00 0.802D+00 0.571D+00
 Gap=     0.205 Goal=   None    Shift=    0.000
 RMSDP=3.29D-04 MaxDP=1.34D-02 DE=-2.75D-02 OVMax= 6.77D-02

 Cycle   4  Pass 0  IDiag  1:
 RMSU=  1.77D-04    CP:  9.38D-01  2.02D+00  6.28D-01
 E= -385.733048394985     Delta-E=       -0.013953485367 Rises=F Damp=F
 DIIS: error= 4.85D-03 at cycle   4 NSaved=   4.
 NSaved= 4 IEnMin= 4 EnMin= -385.733048394985     IErMin= 4 ErrMin= 4.85D-03
 ErrMax= 4.85D-03  0.00D+00 EMaxC= 1.00D-01 BMatC= 1.81D-03 BMatP= 1.50D-02
 IDIUse=3 WtCom= 9.51D-01 WtEn= 4.85D-02
 Coeff-Com: -0.202D+00 0.434D+00 0.339D+00 0.429D+00
 Coeff-En:   0.000D+00 0.000D+00 0.673D-01 0.933D+00
 Coeff:     -0.192D+00 0.413D+00 0.326D+00 0.454D+00
 Gap=     0.208 Goal=   None    Shift=    0.000
 RMSDP=1.04D-04 MaxDP=3.04D-03 DE=-1.40D-02 OVMax= 2.10D-02

 Cycle   5  Pass 0  IDiag  1:
 RMSU=  5.24D-05    CP:  9.37D-01  2.01D+00  7.22D-01  6.50D-01
 E= -385.735076724994     Delta-E=       -0.002028330008 Rises=F Damp=F
 DIIS: error= 6.36D-04 at cycle   5 NSaved=   5.
 NSaved= 5 IEnMin= 5 EnMin= -385.735076724994     IErMin= 5 ErrMin= 6.36D-04
 ErrMax= 6.36D-04  0.00D+00 EMaxC= 1.00D-01 BMatC= 2.62D-05 BMatP= 1.81D-03
 IDIUse=3 WtCom= 9.94D-01 WtEn= 6.36D-03
 Coeff-Com:  0.562D-02-0.124D-01-0.410D-02 0.991D-01 0.912D+00
 Coeff-En:   0.000D+00 0.000D+00 0.000D+00 0.000D+00 0.100D+01
 Coeff:      0.559D-02-0.123D-01-0.407D-02 0.984D-01 0.912D+00
 Gap=     0.208 Goal=   None    Shift=    0.000
 RMSDP=2.97D-05 MaxDP=6.42D-04 DE=-2.03D-03 OVMax= 4.32D-03

 Cycle   6  Pass 0  IDiag  1:
 RMSU=  1.96D-05    CP:  9.37D-01  2.03D+00  7.30D-01  7.42D-01  1.06D+00
 E= -385.735118920037     Delta-E=       -0.000042195043 Rises=F Damp=F
 DIIS: error= 1.92D-04 at cycle   6 NSaved=   6.
 NSaved= 6 IEnMin= 6 EnMin= -385.735118920037     IErMin= 6 ErrMin= 1.92D-04
 ErrMax= 1.92D-04  0.00D+00 EMaxC= 1.00D-01 BMatC= 3.42D-06 BMatP= 2.62D-05
 IDIUse=3 WtCom= 9.98D-01 WtEn= 1.92D-03
 Coeff-Com:  0.164D-01-0.354D-01-0.253D-01 0.125D-01 0.419D+00 0.613D+00
 Coeff-En:   0.000D+00 0.000D+00 0.000D+00 0.000D+00 0.000D+00 0.100D+01
 Coeff:      0.163D-01-0.353D-01-0.253D-01 0.125D-01 0.418D+00 0.614D+00
 Gap=     0.208 Goal=   None    Shift=    0.000
 RMSDP=8.96D-06 MaxDP=2.01D-04 DE=-4.22D-05 OVMax= 1.79D-03

 Initial convergence to 1.0D-05 achieved.  Increase integral accuracy.
 Cycle   7  Pass 1  IDiag  1:
 E= -385.735140224360     Delta-E=       -0.000021304323 Rises=F Damp=F
 DIIS: error= 1.31D-04 at cycle   1 NSaved=   1.
 NSaved= 1 IEnMin= 1 EnMin= -385.735140224360     IErMin= 1 ErrMin= 1.31D-04
 ErrMax= 1.31D-04  0.00D+00 EMaxC= 1.00D-01 BMatC= 4.99D-06 BMatP= 4.99D-06
 IDIUse=3 WtCom= 9.99D-01 WtEn= 1.31D-03
 Coeff-Com:  0.100D+01
 Coeff-En:   0.100D+01
 Coeff:      0.100D+01
 Gap=     0.208 Goal=   None    Shift=    0.000
 RMSDP=8.96D-06 MaxDP=2.01D-04 DE=-2.13D-05 OVMax= 1.53D-03

 Cycle   8  Pass 1  IDiag  1:
 RMSU=  1.42D-04    CP:  1.00D+00
 E= -385.735144448805     Delta-E=       -0.000004224445 Rises=F Damp=F
 DIIS: error= 8.65D-05 at cycle   2 NSaved=   2.
 NSaved= 2 IEnMin= 2 EnMin= -385.735144448805     IErMin= 2 ErrMin= 8.65D-05
 ErrMax= 8.65D-05  0.00D+00 EMaxC= 1.00D-01 BMatC= 4.53D-07 BMatP= 4.99D-06
 IDIUse=1 WtCom= 1.00D+00 WtEn= 0.00D+00
 Coeff-Com:  0.928D-01 0.907D+00
 Coeff:      0.928D-01 0.907D+00
 Gap=     0.208 Goal=   None    Shift=    0.000
 RMSDP=6.82D-06 MaxDP=2.66D-04 DE=-4.22D-06 OVMax= 1.07D-03

 Cycle   9  Pass 1  IDiag  1:
 RMSU=  4.13D-06    CP:  1.00D+00  1.04D+00
 E= -385.735145380183     Delta-E=       -0.000000931379 Rises=F Damp=F
 DIIS: error= 6.20D-05 at cycle   3 NSaved=   3.
 NSaved= 3 IEnMin= 3 EnMin= -385.735145380183     IErMin= 3 ErrMin= 6.20D-05
 ErrMax= 6.20D-05  0.00D+00 EMaxC= 1.00D-01 BMatC= 5.18D-07 BMatP= 4.53D-07
 IDIUse=1 WtCom= 1.00D+00 WtEn= 0.00D+00
 Coeff-Com: -0.228D-01 0.525D+00 0.498D+00
 Coeff:     -0.228D-01 0.525D+00 0.498D+00
 Gap=     0.208 Goal=   None    Shift=    0.000
 RMSDP=2.13D-06 MaxDP=6.23D-05 DE=-9.31D-07 OVMax= 3.74D-04

 Cycle  10  Pass 1  IDiag  1:
 RMSU=  1.82D-06    CP:  1.00D+00  1.05D+00  1.04D+00
 E= -385.735146155494     Delta-E=       -0.000000775311 Rises=F Damp=F
 DIIS: error= 4.37D-05 at cycle   4 NSaved=   4.
 NSaved= 4 IEnMin= 4 EnMin= -385.735146155494     IErMin= 4 ErrMin= 4.37D-05
 ErrMax= 4.37D-05  0.00D+00 EMaxC= 1.00D-01 BMatC= 2.62D-08 BMatP= 4.53D-07
 IDIUse=1 WtCom= 1.00D+00 WtEn= 0.00D+00
 Coeff-Com:  0.346D-02-0.533D+00-0.435D+00 0.196D+01
 Coeff:      0.346D-02-0.533D+00-0.435D+00 0.196D+01
 Gap=     0.208 Goal=   None    Shift=    0.000
 RMSDP=3.12D-06 MaxDP=7.58D-05 DE=-7.75D-07 OVMax= 1.10D-03

 Cycle  11  Pass 1  IDiag  1:
 RMSU=  1.56D-06    CP:  1.00D+00  1.05D+00  1.54D+00  1.94D+00
 E= -385.735146602620     Delta-E=       -0.000000447125 Rises=F Damp=F
 DIIS: error= 9.72D-06 at cycle   5 NSaved=   5.
 NSaved= 5 IEnMin= 5 EnMin= -385.735146602620     IErMin= 5 ErrMin= 9.72D-06
 ErrMax= 9.72D-06  0.00D+00 EMaxC= 1.00D-01 BMatC= 1.18D-08 BMatP= 2.62D-08
 IDIUse=1 WtCom= 1.00D+00 WtEn= 0.00D+00
 Coeff-Com:  0.663D-02-0.424D+00-0.367D+00 0.117D+01 0.615D+00
 Coeff:      0.663D-02-0.424D+00-0.367D+00 0.117D+01 0.615D+00
 Gap=     0.208 Goal=   None    Shift=    0.000
 RMSDP=8.97D-07 MaxDP=2.24D-05 DE=-4.47D-07 OVMax= 3.04D-04

 Cycle  12  Pass 1  IDiag  1:
 RMSU=  2.63D-07    CP:  1.00D+00  1.05D+00  1.66D+00  2.22D+00  1.29D+00
 E= -385.735146638976     Delta-E=       -0.000000036356 Rises=F Damp=F
 DIIS: error= 1.73D-06 at cycle   6 NSaved=   6.
 NSaved= 6 IEnMin= 6 EnMin= -385.735146638976     IErMin= 6 ErrMin= 1.73D-06
 ErrMax= 1.73D-06  0.00D+00 EMaxC= 1.00D-01 BMatC= 3.01D-10 BMatP= 1.18D-08
 IDIUse=1 WtCom= 1.00D+00 WtEn= 0.00D+00
 Coeff-Com:  0.207D-02-0.115D+00-0.104D+00 0.286D+00 0.221D+00 0.709D+00
 Coeff:      0.207D-02-0.115D+00-0.104D+00 0.286D+00 0.221D+00 0.709D+00
 Gap=     0.208 Goal=   None    Shift=    0.000
 RMSDP=1.58D-07 MaxDP=6.11D-06 DE=-3.64D-08 OVMax= 3.41D-05

 Cycle  13  Pass 1  IDiag  1:
 RMSU=  5.03D-08    CP:  1.00D+00  1.05D+00  1.67D+00  2.24D+00  1.35D+00
                    CP:  1.05D+00
 E= -385.735146639609     Delta-E=       -0.000000000633 Rises=F Damp=F
 DIIS: error= 5.28D-07 at cycle   7 NSaved=   7.
 NSaved= 7 IEnMin= 7 EnMin= -385.735146639609     IErMin= 7 ErrMin= 5.28D-07
 ErrMax= 5.28D-07  0.00D+00 EMaxC= 1.00D-01 BMatC= 3.53D-11 BMatP= 3.01D-10
 IDIUse=1 WtCom= 1.00D+00 WtEn= 0.00D+00
 Coeff-Com: -0.173D-03 0.168D-01 0.113D-01-0.562D-01 0.101D-02 0.226D+00
 Coeff-Com:  0.801D+00
 Coeff:     -0.173D-03 0.168D-01 0.113D-01-0.562D-01 0.101D-02 0.226D+00
 Coeff:      0.801D+00
 Gap=     0.208 Goal=   None    Shift=    0.000
 RMSDP=6.39D-08 MaxDP=2.51D-06 DE=-6.33D-10 OVMax= 8.98D-06

 Cycle  14  Pass 1  IDiag  1:
 RMSU=  2.52D-08    CP:  1.00D+00  1.05D+00  1.67D+00  2.24D+00  1.38D+00
                    CP:  1.10D+00  1.09D+00
 E= -385.735146639683     Delta-E=       -0.000000000074 Rises=F Damp=F
 DIIS: error= 2.17D-07 at cycle   8 NSaved=   8.
 NSaved= 8 IEnMin= 8 EnMin= -385.735146639683     IErMin= 8 ErrMin= 2.17D-07
 ErrMax= 2.17D-07  0.00D+00 EMaxC= 1.00D-01 BMatC= 6.66D-12 BMatP= 3.53D-11
 IDIUse=1 WtCom= 1.00D+00 WtEn= 0.00D+00
 Coeff-Com: -0.406D-03 0.254D-01 0.210D-01-0.680D-01-0.317D-01-0.323D-01
 Coeff-Com:  0.301D+00 0.785D+00
 Coeff:     -0.406D-03 0.254D-01 0.210D-01-0.680D-01-0.317D-01-0.323D-01
 Coeff:      0.301D+00 0.785D+00
 Gap=     0.208 Goal=   None    Shift=    0.000
 RMSDP=1.58D-08 MaxDP=4.99D-07 DE=-7.40D-11 OVMax= 2.90D-06

 Cycle  15  Pass 1  IDiag  1:
 RMSU=  9.98D-09    CP:  1.00D+00  1.05D+00  1.66D+00  2.24D+00  1.38D+00
                    CP:  1.11D+00  1.19D+00  1.20D+00
 E= -385.735146639697     Delta-E=       -0.000000000014 Rises=F Damp=F
 DIIS: error= 1.29D-07 at cycle   9 NSaved=   9.
 NSaved= 9 IEnMin= 9 EnMin= -385.735146639697     IErMin= 9 ErrMin= 1.29D-07
 ErrMax= 1.29D-07  0.00D+00 EMaxC= 1.00D-01 BMatC= 1.00D-12 BMatP= 6.66D-12
 IDIUse=1 WtCom= 1.00D+00 WtEn= 0.00D+00
 Coeff-Com: -0.115D-03 0.634D-02 0.546D-02-0.156D-01-0.923D-02-0.441D-01
 Coeff-Com: -0.181D-01 0.262D+00 0.814D+00
 Coeff:     -0.115D-03 0.634D-02 0.546D-02-0.156D-01-0.923D-02-0.441D-01
 Coeff:     -0.181D-01 0.262D+00 0.814D+00
 Gap=     0.208 Goal=   None    Shift=    0.000
 RMSDP=7.97D-09 MaxDP=2.83D-07 DE=-1.44D-11 OVMax= 1.23D-06

 SCF Done:  E(RCAM-B3LYP) =  -385.735146640     A.U. after   15 cycles
            NFock= 15  Conv=0.80D-08     -V/T= 2.0054
 KE= 3.836679968346D+02 PE=-1.801606638324D+03 EE= 5.786432258729D+02
 Leave Link  502 at Wed Apr 24 16:29:42 2024, MaxMem= 34359738368 cpu:            1076.7 elap:              34.0
 (Enter /apps/gaussian/g16-c01-avx2/g16/l601.exe)
 Copying SCF densities to generalized density rwf, IOpCl= 0 IROHF=0.

 **********************************************************************

            Population analysis using the SCF Density.

 **********************************************************************

 Orbital symmetries:
       Occupied  (A) (A) (A) (A) (A) (A) (A) (A) (A) (A) (A) (A)
                 (A) (A) (A) (A) (A) (A) (A) (A) (A) (A) (A) (A)
                 (A) (A) (A) (A) (A) (A) (A) (A) (A) (A)
       Virtual   (A) (A) (A) (A) (A) (A) (A) (A) (A) (A) (A) (A)
                 (A) (A) (A) (A) (A) (A) (A) (A) (A) (A) (A) (A)
                 (A) (A) (A) (A) (A) (A) (A) (A) (A) (A) (A) (A)
                 (A) (A) (A) (A) (A) (A) (A) (A) (A) (A) (A) (A)
                 (A) (A) (A) (A) (A) (A) (A) (A) (A) (A) (A) (A)
                 (A) (A) (A) (A) (A) (A) (A) (A) (A) (A) (A) (A)
                 (A) (A) (A) (A) (A) (A) (A) (A) (A) (A) (A) (A)
                 (A) (A) (A) (A) (A) (A) (A) (A) (A) (A) (A) (A)
                 (A) (A) (A) (A) (A) (A) (A) (A) (A) (A) (A) (A)
                 (A) (A) (A) (A) (A) (A) (A) (A) (A) (A) (A) (A)
                 (A) (A) (A) (A) (A) (A) (A) (A) (A) (A) (A) (A)
                 (A) (A) (A) (A) (A) (A) (A) (A) (A) (A) (A) (A)
                 (A) (A) (A) (A) (A) (A) (A) (A) (A) (A) (A) (A)
                 (A) (A) (A) (A) (A) (A) (A) (A) (A) (A) (A) (A)
                 (A) (A) (A) (A) (A) (A) (A) (A) (A) (A) (A) (A)
                 (A) (A) (A) (A) (A) (A) (A) (A) (A) (A) (A) (A)
                 (A) (A) (A) (A) (A) (A) (A) (A) (A) (A) (A) (A)
                 (A) (A) (A) (A) (A) (A) (A) (A) (A) (A) (A) (A)
                 (A) (A) (A) (A) (A) (A) (A) (A) (A) (A) (A) (A)
                 (A) (A) (A) (A) (A) (A) (A) (A) (A) (A) (A) (A)
                 (A) (A) (A) (A) (A) (A) (A) (A) (A) (A) (A) (A)
                 (A) (A) (A) (A) (A) (A) (A) (A) (A) (A) (A) (A)
                 (A) (A) (A) (A) (A) (A) (A) (A) (A) (A) (A) (A)
                 (A) (A) (A) (A) (A) (A) (A) (A) (A) (A) (A) (A)
                 (A) (A) (A) (A) (A) (A) (A) (A) (A) (A) (A) (A)
                 (A) (A) (A) (A) (A) (A) (A) (A) (A) (A) (A) (A)
                 (A) (A) (A) (A) (A) (A) (A) (A) (A) (A) (A) (A)
 The electronic state is 1-A.
 Alpha  occ. eigenvalues --  -10.27561 -10.27149 -10.27129 -10.26264 -10.26180
 Alpha  occ. eigenvalues --  -10.25911 -10.25758 -10.24828 -10.23705 -10.23579
 Alpha  occ. eigenvalues --   -0.95980  -0.91040  -0.87426  -0.82185  -0.78357
 Alpha  occ. eigenvalues --   -0.72653  -0.69455  -0.62738  -0.62074  -0.58960
 Alpha  occ. eigenvalues --   -0.56749  -0.52362  -0.52330  -0.47560  -0.46521
 Alpha  occ. eigenvalues --   -0.46153  -0.44608  -0.43465  -0.42244  -0.40187
 Alpha  occ. eigenvalues --   -0.39586  -0.36918  -0.29067  -0.24715
 Alpha virt. eigenvalues --   -0.03928  -0.00790   0.07390   0.09469   0.10890
 Alpha virt. eigenvalues --    0.11237   0.12313   0.12983   0.14556   0.15937
 Alpha virt. eigenvalues --    0.16556   0.16812   0.17694   0.17959   0.20714
 Alpha virt. eigenvalues --    0.21527   0.22647   0.23677   0.23848   0.25184
 Alpha virt. eigenvalues --    0.26729   0.27198   0.28228   0.29218   0.29578
 Alpha virt. eigenvalues --    0.30869   0.32199   0.33005   0.33292   0.34925
 Alpha virt. eigenvalues --    0.35531   0.36713   0.37152   0.39151   0.39626
 Alpha virt. eigenvalues --    0.39718   0.39798   0.40686   0.41363   0.43871
 Alpha virt. eigenvalues --    0.44460   0.45430   0.45666   0.46745   0.47397
 Alpha virt. eigenvalues --    0.47832   0.49205   0.49281   0.50203   0.50953
 Alpha virt. eigenvalues --    0.53136   0.54366   0.54488   0.54812   0.55315
 Alpha virt. eigenvalues --    0.57377   0.59874   0.60277   0.62365   0.65173
 Alpha virt. eigenvalues --    0.66397   0.68604   0.69612   0.69846   0.70853
 Alpha virt. eigenvalues --    0.72309   0.73763   0.74043   0.75333   0.76169
 Alpha virt. eigenvalues --    0.78465   0.78496   0.80489   0.80703   0.82517
 Alpha virt. eigenvalues --    0.82698   0.85199   0.86360   0.88581   0.89865
 Alpha virt. eigenvalues --    0.93073   0.94539   0.94959   0.97664   1.01121
 Alpha virt. eigenvalues --    1.02823   1.04289   1.05236   1.05825   1.05888
 Alpha virt. eigenvalues --    1.09812   1.10000   1.11767   1.12463   1.15305
 Alpha virt. eigenvalues --    1.18115   1.18135   1.18739   1.22890   1.24530
 Alpha virt. eigenvalues --    1.25249   1.25820   1.26843   1.29344   1.29961
 Alpha virt. eigenvalues --    1.32701   1.34947   1.36219   1.37154   1.38278
 Alpha virt. eigenvalues --    1.40513   1.42061   1.42662   1.44872   1.45414
 Alpha virt. eigenvalues --    1.45554   1.51857   1.52909   1.53868   1.54421
 Alpha virt. eigenvalues --    1.55309   1.55703   1.57869   1.59502   1.59548
 Alpha virt. eigenvalues --    1.62367   1.62584   1.62751   1.64640   1.65360
 Alpha virt. eigenvalues --    1.66264   1.70573   1.76973   1.77456   1.77510
 Alpha virt. eigenvalues --    1.79330   1.81668   1.82942   1.85747   1.88148
 Alpha virt. eigenvalues --    1.88604   1.90848   1.94356   1.95674   1.97831
 Alpha virt. eigenvalues --    1.98867   1.99445   2.02649   2.04823   2.06253
 Alpha virt. eigenvalues --    2.09184   2.10058   2.10876   2.11897   2.14067
 Alpha virt. eigenvalues --    2.17255   2.19582   2.21724   2.24507   2.25159
 Alpha virt. eigenvalues --    2.28017   2.28829   2.33393   2.34118   2.36819
 Alpha virt. eigenvalues --    2.37437   2.43986   2.45862   2.51164   2.52556
 Alpha virt. eigenvalues --    2.54025   2.55489   2.57430   2.61402   2.63126
 Alpha virt. eigenvalues --    2.65300   2.65838   2.66986   2.67462   2.69383
 Alpha virt. eigenvalues --    2.69604   2.71393   2.71998   2.73265   2.74781
 Alpha virt. eigenvalues --    2.74856   2.77024   2.78781   2.80109   2.80282
 Alpha virt. eigenvalues --    2.80966   2.82833   2.84291   2.87384   2.87480
 Alpha virt. eigenvalues --    2.88765   2.90209   2.90540   2.91925   2.92545
 Alpha virt. eigenvalues --    2.95692   2.96778   2.97696   2.97905   2.98342
 Alpha virt. eigenvalues --    2.99425   3.02089   3.02418   3.04556   3.05427
 Alpha virt. eigenvalues --    3.07041   3.07405   3.10884   3.11827   3.14113
 Alpha virt. eigenvalues --    3.14825   3.15376   3.17084   3.20388   3.20885
 Alpha virt. eigenvalues --    3.21522   3.23338   3.25682   3.26156   3.27222
 Alpha virt. eigenvalues --    3.27769   3.30057   3.31460   3.31643   3.35101
 Alpha virt. eigenvalues --    3.37764   3.38307   3.38614   3.39240   3.39649
 Alpha virt. eigenvalues --    3.41501   3.42399   3.42794   3.46940   3.48191
 Alpha virt. eigenvalues --    3.50454   3.50857   3.52327   3.54939   3.55163
 Alpha virt. eigenvalues --    3.57742   3.58427   3.61050   3.63384   3.64626
 Alpha virt. eigenvalues --    3.65071   3.66875   3.68625   3.70786   3.71590
 Alpha virt. eigenvalues --    3.72022   3.75297   3.75304   3.80943   3.83929
 Alpha virt. eigenvalues --    3.84386   3.89163   3.92395   3.94665   3.97616
 Alpha virt. eigenvalues --    3.99405   4.03122   4.04251   4.05569   4.09529
 Alpha virt. eigenvalues --    4.11176   4.14337   4.14989   4.15646   4.19109
 Alpha virt. eigenvalues --    4.19289   4.21696   4.25014   4.27690   4.28361
 Alpha virt. eigenvalues --    4.30422   4.31547   4.32397   4.36952   4.40421
 Alpha virt. eigenvalues --    4.41813   4.44235   4.50929   4.51045   4.64759
 Alpha virt. eigenvalues --    4.68823   4.73073   4.77355   4.78691   4.80076
 Alpha virt. eigenvalues --    4.81640   4.83029   4.83662   4.89573   4.93571
 Alpha virt. eigenvalues --    4.98175   5.07353   5.08690   5.13471   5.14803
 Alpha virt. eigenvalues --    5.18537   5.31882   5.37845   5.48670   5.51340
 Alpha virt. eigenvalues --    5.59842   5.64577   5.70371   5.94581  21.93906
 Alpha virt. eigenvalues --   22.54655  22.60963  22.65832  22.72890  22.80623
 Alpha virt. eigenvalues --   22.88279  22.98470  23.06547  23.47042
          Condensed to atoms (all electrons):
               1          2          3          4          5          6
     1  C    4.877219   0.553097  -0.021511   0.445846  -0.016036  -0.019424
     2  C    0.553097   4.902799   0.437214  -0.063781  -0.046550  -0.015065
     3  C   -0.021511   0.437214   5.000948  -0.020574   0.499517   0.023066
     4  C    0.445846  -0.063781  -0.020574   4.900857  -0.003996   0.551356
     5  C   -0.016036  -0.046550   0.499517  -0.003996   4.979680  -0.069293
     6  C   -0.019424  -0.015065   0.023066   0.551356  -0.069293   4.977746
     7  C   -0.016637  -0.007327  -0.079242  -0.057217   0.350817   0.436065
     8  H    0.404367  -0.032870   0.005577  -0.039446  -0.000193   0.005159
     9  H   -0.041290   0.418763  -0.049241   0.007070   0.009386  -0.000956
    10  H    0.005580  -0.046064   0.406166  -0.000082  -0.036034  -0.001001
    11  H   -0.050239   0.007054  -0.000820   0.420236   0.000120  -0.041755
    12  H    0.006721  -0.000414  -0.000788  -0.040972   0.008646   0.408561
    13  C   -0.002298   0.005882  -0.089080   0.001177   0.476375   0.006708
    14  H    0.000038  -0.000043   0.002843   0.000045  -0.053539  -0.000393
    15  C    0.000298  -0.000240   0.000300  -0.000183  -0.082149   0.005683
    16  H   -0.000001   0.000011  -0.000211   0.000002   0.009704  -0.000298
    17  C   -0.001625   0.000824   0.003311   0.002016  -0.124570  -0.099734
    18  H    0.000026   0.000033  -0.000393   0.000054   0.013547  -0.001316
               7          8          9         10         11         12
     1  C   -0.016637   0.404367  -0.041290   0.005580  -0.050239   0.006721
     2  C   -0.007327  -0.032870   0.418763  -0.046064   0.007054  -0.000414
     3  C   -0.079242   0.005577  -0.049241   0.406166  -0.000820  -0.000788
     4  C   -0.057217  -0.039446   0.007070  -0.000082   0.420236  -0.040972
     5  C    0.350817  -0.000193   0.009386  -0.036034   0.000120   0.008646
     6  C    0.436065   0.005159  -0.000956  -0.001001  -0.041755   0.408561
     7  C    4.959698  -0.000310   0.000357   0.009462   0.009368  -0.045161
     8  H   -0.000310   0.542571  -0.008837  -0.000348  -0.006623  -0.000343
     9  H    0.000357  -0.008837   0.548432  -0.005741  -0.000281   0.000023
    10  H    0.009462  -0.000348  -0.005741   0.538938   0.000012   0.000025
    11  H    0.009368  -0.006623  -0.000281   0.000012   0.550364  -0.008825
    12  H   -0.045161  -0.000343   0.000023   0.000025  -0.008825   0.543731
    13  C   -0.107899   0.000036  -0.000464  -0.006234   0.000036  -0.000493
    14  H    0.011767  -0.000001   0.000009   0.004761   0.000000   0.000015
    15  C   -0.062534  -0.000005   0.000017  -0.000056   0.000024  -0.000137
    16  H    0.006976   0.000000  -0.000000  -0.000041  -0.000000  -0.000026
    17  C    0.584657   0.000024   0.000043  -0.000312  -0.000421  -0.001236
    18  H   -0.046270  -0.000000   0.000000   0.000015  -0.000011   0.004396
              13         14         15         16         17         18
     1  C   -0.002298   0.000038   0.000298  -0.000001  -0.001625   0.000026
     2  C    0.005882  -0.000043  -0.000240   0.000011   0.000824   0.000033
     3  C   -0.089080   0.002843   0.000300  -0.000211   0.003311  -0.000393
     4  C    0.001177   0.000045  -0.000183   0.000002   0.002016   0.000054
     5  C    0.476375  -0.053539  -0.082149   0.009704  -0.124570   0.013547
     6  C    0.006708  -0.000393   0.005683  -0.000298  -0.099734  -0.001316
     7  C   -0.107899   0.011767  -0.062534   0.006976   0.584657  -0.046270
     8  H    0.000036  -0.000001  -0.000005   0.000000   0.000024  -0.000000
     9  H   -0.000464   0.000009   0.000017  -0.000000   0.000043   0.000000
    10  H   -0.006234   0.004761  -0.000056  -0.000041  -0.000312   0.000015
    11  H    0.000036   0.000000   0.000024  -0.000000  -0.000421  -0.000011
    12  H   -0.000493   0.000015  -0.000137  -0.000026  -0.001236   0.004396
    13  C    5.020629   0.417751   0.589916  -0.042308  -0.068186   0.003669
    14  H    0.417751   0.527273  -0.032988  -0.003724   0.005475  -0.000203
    15  C    0.589916  -0.032988   4.861123   0.426097   0.467956  -0.036462
    16  H   -0.042308  -0.003724   0.426097   0.523834  -0.045721  -0.002135
    17  C   -0.068186   0.005475   0.467956  -0.045721   5.038546   0.416680
    18  H    0.003669  -0.000203  -0.036462  -0.002135   0.416680   0.526410
 Mulliken charges:
               1
     1  C   -0.124132
     2  C   -0.113325
     3  C   -0.117082
     4  C   -0.102408
     5  C    0.084567
     6  C   -0.165109
     7  C    0.053431
     8  H    0.131243
     9  H    0.122711
    10  H    0.130956
    11  H    0.121760
    12  H    0.126278
    13  C   -0.205217
    14  H    0.120913
    15  C   -0.136661
    16  H    0.127841
    17  C   -0.177727
    18  H    0.121960
 Sum of Mulliken charges =  -0.00000
 Mulliken charges with hydrogens summed into heavy atoms:
               1
     1  C    0.007110
     2  C    0.009387
     3  C    0.013874
     4  C    0.019353
     5  C    0.084567
     6  C   -0.038831
     7  C    0.053431
    13  C   -0.084304
    15  C   -0.008820
    17  C   -0.055768
 Electronic spatial extent (au):  <R**2>=           1310.2455
 Charge=             -0.0000 electrons
 Dipole moment (field-independent basis, Debye):
    X=              1.2060    Y=             -0.1275    Z=              0.0001  Tot=              1.2127
 Quadrupole moment (field-independent basis, Debye-Ang):
   XX=            -52.5818   YY=            -51.5002   ZZ=            -64.7578
   XY=             -0.3583   XZ=              0.0007   YZ=             -0.0004
 Traceless Quadrupole moment (field-independent basis, Debye-Ang):
   XX=              3.6981   YY=              4.7798   ZZ=             -8.4779
   XY=             -0.3583   XZ=              0.0007   YZ=             -0.0004
 Octapole moment (field-independent basis, Debye-Ang**2):
  XXX=              6.5106  YYY=             -1.4447  ZZZ=             -0.0001  XYY=              2.4352
  XXY=              1.3937  XXZ=              0.0092  XZZ=              1.4822  YZZ=             -0.1099
  YYZ=             -0.0036  XYZ=              0.0073
 Hexadecapole moment (field-independent basis, Debye-Ang**3):
 XXXX=          -1088.6179 YYYY=           -520.8467 ZZZZ=            -78.4683 XXXY=             -2.3945
 XXXZ=              0.0160 YYYX=             -1.9628 YYYZ=             -0.0048 ZZZX=              0.0014
 ZZZY=              0.0006 XXYY=           -277.5212 XXZZ=           -241.7383 YYZZ=           -122.5115
 XXYZ=             -0.0004 YYXZ=             -0.0048 ZZXY=             -0.4282
 N-N= 4.535602689767D+02 E-N=-1.801606650227D+03  KE= 3.836679968346D+02
 No NMR shielding tensors so no spin-rotation constants.
 Leave Link  601 at Wed Apr 24 16:29:43 2024, MaxMem= 34359738368 cpu:               4.4 elap:               0.2
 (Enter /apps/gaussian/g16-c01-avx2/g16/l701.exe)
 ... and contract with generalized density number  0.
 Compute integral first derivatives.
   1 Symmetry operations used in ECPInt.
 ECPInt:  NShTT=   10153 NPrTT=   31120 LenC2=    9880 LenP2D=   23856.
 LDataN:  DoStor=T MaxTD1= 7 Len=  274
 Leave Link  701 at Wed Apr 24 16:29:44 2024, MaxMem= 34359738368 cpu:               7.5 elap:               0.3
 (Enter /apps/gaussian/g16-c01-avx2/g16/l702.exe)
 L702 exits ... SP integral derivatives will be done elsewhere.
 Leave Link  702 at Wed Apr 24 16:29:44 2024, MaxMem= 34359738368 cpu:               0.4 elap:               0.0
 (Enter /apps/gaussian/g16-c01-avx2/g16/l703.exe)
 Integral derivatives from FoFJK, PRISM(SPDF).
 Compute integral first derivatives, UseDBF=F ICtDFT=           0.
 Calling FoFJK, ICntrl=      2127 FMM=F ISym2X=0 I1Cent= 0 IOpClX= 0 NMat=1 NMatS=1 NMatT=0.
 FoFJK:  IHMeth= 1 ICntrl=    2127 DoSepK=T KAlg= 0 I1Cent=           0 FoldK=F
 IRaf=         1 NMat=       1 IRICut=       1 DoRegI=T DoRafI=F ISym2E= 0 IDoP0=0 IntGTp=1.
 FoFCou: FMM=F IPFlag=           0 FMFlag=      100000 FMFlg1=         800
         NFxFlg=           0 DoJE=F BraDBF=F KetDBF=F FulRan=T
         wScrn=  0.000000 ICntrl=      2527 IOpCl=  0 I1Cent=           0 NGrid=           0
         NMat0=    1 NMatS0=      1 NMatT0=    0 NMatD0=    1 NMtDS0=    0 NMtDT0=    0
 Symmetry not used in FoFCou.
 Leave Link  703 at Wed Apr 24 16:29:57 2024, MaxMem= 34359738368 cpu:             391.1 elap:              12.4
 (Enter /apps/gaussian/g16-c01-avx2/g16/l716.exe)
 Dipole        = 4.74477437D-01-5.01503645D-02 4.18921933D-05
 ***** Axes restored to original set *****
 -------------------------------------------------------------------
 Center     Atomic                   Forces (Hartrees/Bohr)
 Number     Number              X              Y              Z
 -------------------------------------------------------------------
      1        6          -0.015748875   -0.008013529    0.000005262
      2        6           0.018176739   -0.011575809   -0.000021163
      3        6           0.007519695   -0.013301500   -0.000010757
      4        6          -0.014879633   -0.015510968    0.000002810
      5        6           0.017807538    0.029695153   -0.000001239
      6        6          -0.002233178    0.019014003    0.000001263
      7        6          -0.004901552    0.009988464    0.000009876
      8        1           0.008401462    0.013979214    0.000016178
      9        1          -0.008427060    0.013306313    0.000000821
     10        1          -0.014658765    0.005330886    0.000004258
     11        1           0.014944855    0.005358436   -0.000000373
     12        1           0.011365085   -0.010408597   -0.000016175
     13        6          -0.012565162   -0.011251787    0.000009664
     14        1          -0.005833600    0.001713148    0.000014876
     15        6          -0.015475956   -0.011616943   -0.000002029
     16        1          -0.001133633   -0.006713363   -0.000002286
     17        6           0.014911731   -0.004178771   -0.000001573
     18        1           0.002730308   -0.005814349   -0.000009415
 -------------------------------------------------------------------
 Cartesian Forces:  Max     0.029695153 RMS     0.010029235
 Leave Link  716 at Wed Apr 24 16:29:59 2024, MaxMem= 34359738368 cpu:               2.6 elap:               0.2
 (Enter /apps/gaussian/g16-c01-avx2/g16/l103.exe)

 GradGradGradGradGradGradGradGradGradGradGradGradGradGradGradGradGradGrad
 Berny optimization.
 FormGI is forming the generalized inverse of G from B-inverse, IUseBI=4.
 Internal  Forces:  Max     0.026725577 RMS     0.005819921
 Search for a local minimum.
 Step number   1 out of a maximum of  103
 All quantities printed in internal units (Hartrees-Bohrs-Radians)
 RMS Force = .58199D-02 SwitMx=.10000D-02 MixMth= 1
 Mixed Optimization -- RFO/linear search
 Second derivative matrix not updated -- first step.
 ITU=  0
     Eigenvalues ---    0.01469   0.01668   0.01785   0.01826   0.01876
     Eigenvalues ---    0.01886   0.02047   0.02073   0.02138   0.02252
     Eigenvalues ---    0.02264   0.02275   0.02283   0.02413   0.02504
     Eigenvalues ---    0.16000   0.16000   0.16000   0.16000   0.16000
     Eigenvalues ---    0.16000   0.16000   0.16000   0.22000   0.22000
     Eigenvalues ---    0.22201   0.22930   0.24027   0.24743   0.31870
     Eigenvalues ---    0.32604   0.32630   0.32656   0.32758   0.32777
     Eigenvalues ---    0.34902   0.35075   0.35082   0.35322   0.38143
     Eigenvalues ---    0.41508   0.42113   0.43493   0.44222   0.47824
     Eigenvalues ---    0.51219   0.51690   0.53330
 RFO step:  Lambda=-8.60049244D-03 EMin= 1.46869170D-02
 Linear search not attempted -- first point.
 Iteration  1 RMS(Cart)=  0.02127900 RMS(Int)=  0.00008556
 Iteration  2 RMS(Cart)=  0.00011639 RMS(Int)=  0.00001227
 Iteration  3 RMS(Cart)=  0.00000001 RMS(Int)=  0.00001227
 ITry= 1 IFail=0 DXMaxC= 8.75D-02 DCOld= 1.00D+10 DXMaxT= 3.00D-01 DXLimC= 3.00D+00 Rises=F
 Variable       Old X    -DE/DX   Delta X   Delta X   Delta X     New X
                                 (Linear)    (Quad)   (Total)
    R1        2.57141   0.00472   0.00000   0.00888   0.00888   2.58029
    R2        2.67542  -0.00535   0.00000  -0.01213  -0.01213   2.66329
    R3        2.09752  -0.01625   0.00000  -0.04857  -0.04857   2.04895
    R4        2.67543  -0.00543   0.00000  -0.01227  -0.01227   2.66317
    R5        2.09444  -0.01567   0.00000  -0.04660  -0.04660   2.04785
    R6        2.56350   0.00444   0.00000   0.00815   0.00815   2.57165
    R7        2.09659  -0.01551   0.00000  -0.04627  -0.04627   2.05032
    R8        2.56983   0.00577   0.00000   0.01068   0.01068   2.58051
    R9        2.09479  -0.01583   0.00000  -0.04710  -0.04710   2.04769
   R10        2.80490  -0.00234   0.00000  -0.00533  -0.00536   2.79954
   R11        2.75436  -0.02673   0.00000  -0.06962  -0.06962   2.68474
   R12        2.66680  -0.00732   0.00000  -0.01648  -0.01649   2.65031
   R13        2.09706  -0.01537   0.00000  -0.04588  -0.04588   2.05118
   R14        2.63021  -0.01674   0.00000  -0.03474  -0.03476   2.59544
   R15        2.05543  -0.00602   0.00000  -0.01674  -0.01674   2.03869
   R16        2.60917  -0.01093   0.00000  -0.02275  -0.02271   2.58645
   R17        2.05835  -0.00660   0.00000  -0.01847  -0.01847   2.03988
   R18        2.72988  -0.01939   0.00000  -0.04978  -0.04976   2.68012
   R19        2.05553  -0.00604   0.00000  -0.01681  -0.01681   2.03872
    A1        2.26411   0.00058   0.00000   0.00314   0.00313   2.26724
    A2        2.02870  -0.00171   0.00000  -0.01000  -0.01000   2.01870
    A3        1.99038   0.00113   0.00000   0.00687   0.00687   1.99725
    A4        2.24943  -0.00160   0.00000  -0.00630  -0.00630   2.24313
    A5        2.03682  -0.00082   0.00000  -0.00648  -0.00647   2.03035
    A6        1.99694   0.00242   0.00000   0.01277   0.01277   2.00971
    A7        2.23442   0.00219   0.00000   0.01009   0.01008   2.24450
    A8        2.00788   0.00065   0.00000   0.00534   0.00534   2.01322
    A9        2.04088  -0.00285   0.00000  -0.01542  -0.01542   2.02546
   A10        2.25529  -0.00138   0.00000  -0.00579  -0.00580   2.24949
   A11        1.99407   0.00192   0.00000   0.01021   0.01021   2.00429
   A12        2.03383  -0.00054   0.00000  -0.00442  -0.00442   2.02941
   A13        2.25338  -0.00235   0.00000  -0.01027  -0.01026   2.24312
   A14        2.18351   0.00081   0.00000   0.00177   0.00178   2.18529
   A15        1.84630   0.00154   0.00000   0.00851   0.00848   1.85478
   A16        2.24310   0.00116   0.00000   0.00502   0.00501   2.24811
   A17        2.04326  -0.00181   0.00000  -0.00979  -0.00979   2.03348
   A18        1.99682   0.00065   0.00000   0.00477   0.00477   2.00159
   A19        2.20824   0.00139   0.00000   0.00411   0.00413   2.21237
   A20        1.87736  -0.00272   0.00000  -0.00814  -0.00819   1.86917
   A21        2.19758   0.00133   0.00000   0.00403   0.00406   2.20165
   A22        2.15899   0.00191   0.00000   0.01024   0.01022   2.16921
   A23        1.89712  -0.00203   0.00000  -0.00982  -0.00979   1.88733
   A24        2.22708   0.00012   0.00000  -0.00042  -0.00044   2.22665
   A25        2.21399  -0.00395   0.00000  -0.01824  -0.01826   2.19573
   A26        1.90442   0.00450   0.00000   0.01628   0.01633   1.92074
   A27        2.16478  -0.00055   0.00000   0.00196   0.00193   2.16671
   A28        1.89959  -0.00128   0.00000  -0.00682  -0.00683   1.89276
   A29        2.20885  -0.00160   0.00000  -0.00988  -0.00987   2.19898
   A30        2.17475   0.00288   0.00000   0.01670   0.01670   2.19145
    D1       -0.00074   0.00001   0.00000   0.00033   0.00033  -0.00041
    D2        3.14119   0.00000   0.00000   0.00015   0.00015   3.14135
    D3        3.14101   0.00001   0.00000   0.00027   0.00027   3.14128
    D4       -0.00024   0.00000   0.00000   0.00009   0.00009  -0.00015
    D5        0.00009  -0.00000   0.00000  -0.00006  -0.00006   0.00003
    D6       -3.14128  -0.00000   0.00000  -0.00016  -0.00016  -3.14143
    D7        3.14153  -0.00000   0.00000  -0.00000  -0.00000   3.14153
    D8        0.00016  -0.00000   0.00000  -0.00010  -0.00010   0.00006
    D9        0.00025  -0.00000   0.00000  -0.00011  -0.00011   0.00014
   D10       -3.14118  -0.00001   0.00000  -0.00021  -0.00021  -3.14139
   D11        3.14151   0.00000   0.00000   0.00006   0.00007   3.14158
   D12        0.00008  -0.00000   0.00000  -0.00003  -0.00003   0.00004
   D13        0.00063  -0.00001   0.00000  -0.00024  -0.00024   0.00039
   D14       -3.14132  -0.00001   0.00000  -0.00024  -0.00024  -3.14156
   D15       -3.14112  -0.00000   0.00000  -0.00014  -0.00014  -3.14127
   D16        0.00011  -0.00000   0.00000  -0.00013  -0.00013  -0.00003
   D17        0.00062  -0.00001   0.00000  -0.00028  -0.00028   0.00034
   D18       -3.14124  -0.00000   0.00000  -0.00012  -0.00012  -3.14136
   D19       -3.14120  -0.00001   0.00000  -0.00018  -0.00018  -3.14138
   D20        0.00013  -0.00000   0.00000  -0.00003  -0.00003   0.00010
   D21       -0.00059   0.00000   0.00000   0.00019   0.00019  -0.00040
   D22        3.14114   0.00000   0.00000   0.00020   0.00020   3.14134
   D23        3.14131   0.00000   0.00000   0.00018   0.00018   3.14149
   D24       -0.00014   0.00000   0.00000   0.00019   0.00019   0.00005
   D25        0.00054  -0.00000   0.00000  -0.00021  -0.00020   0.00033
   D26       -3.14117  -0.00001   0.00000  -0.00023  -0.00023  -3.14140
   D27       -3.14135  -0.00001   0.00000  -0.00020  -0.00020  -3.14155
   D28        0.00014  -0.00001   0.00000  -0.00023  -0.00023  -0.00009
   D29       -0.00028   0.00001   0.00000   0.00019   0.00018  -0.00010
   D30        3.14114   0.00001   0.00000   0.00017   0.00017   3.14132
   D31        3.14157   0.00000   0.00000   0.00004   0.00003  -3.14158
   D32       -0.00019   0.00000   0.00000   0.00002   0.00002  -0.00017
   D33        0.00010  -0.00000   0.00000  -0.00008  -0.00008   0.00001
   D34       -3.14143  -0.00000   0.00000  -0.00012  -0.00011  -3.14155
   D35       -3.14136  -0.00000   0.00000  -0.00007  -0.00007  -3.14143
   D36        0.00030  -0.00000   0.00000  -0.00011  -0.00010   0.00019
   D37        3.14158   0.00000   0.00000   0.00007   0.00007  -3.14153
   D38       -0.00008   0.00000   0.00000   0.00019   0.00019   0.00011
   D39       -0.00013   0.00000   0.00000   0.00004   0.00004  -0.00009
   D40        3.14140   0.00000   0.00000   0.00016   0.00016   3.14155
   D41       -0.00001  -0.00000   0.00000  -0.00006  -0.00006  -0.00008
   D42        3.14152  -0.00000   0.00000  -0.00003  -0.00003   3.14149
   D43        3.14152   0.00000   0.00000   0.00005   0.00005   3.14156
   D44       -0.00013   0.00000   0.00000   0.00007   0.00008  -0.00006
         Item               Value     Threshold  Converged?
 Maximum Force            0.026726     0.000450     NO 
 RMS     Force            0.005820     0.000300     NO 
 Maximum Displacement     0.087487     0.001800     NO 
 RMS     Displacement     0.021283     0.001200     NO 
 Predicted change in Energy=-4.405280D-03
 Lowest energy point so far.  Saving SCF results.
 GradGradGradGradGradGradGradGradGradGradGradGradGradGradGradGradGradGrad

 Leave Link  103 at Wed Apr 24 16:30:01 2024, MaxMem= 34359738368 cpu:              14.7 elap:               0.6
 (Enter /apps/gaussian/g16-c01-avx2/g16/l202.exe)
                          Input orientation:                          
 ---------------------------------------------------------------------
 Center     Atomic      Atomic             Coordinates (Angstroms)
 Number     Number       Type             X           Y           Z
 ---------------------------------------------------------------------
      1          6           0       -1.582810    0.648410   -0.020631
      2          6           0       -0.217381    0.646550   -0.020931
      3          6           0        0.661843    1.747938   -0.020944
      4          6           0       -2.485424    1.730801   -0.019818
      5          6           0        0.360358    3.074980   -0.020511
      6          6           0       -2.218112    3.069928   -0.019145
      7          6           0       -0.974305    3.717929   -0.019462
      8          1           0       -2.053707   -0.328255   -0.020990
      9          1           0        0.261954   -0.325348   -0.021350
     10          1           0        1.717939    1.499246   -0.021412
     11          1           0       -3.532154    1.450567   -0.019591
     12          1           0       -3.075793    3.735174   -0.018346
     13          6           0        1.310855    4.130891   -0.020596
     14          1           0        2.379938    3.986228   -0.021316
     15          6           0        0.629175    5.317747   -0.019807
     16          1           0        1.073775    6.301395   -0.019715
     17          6           0       -0.768303    5.075841   -0.019050
     18          1           0       -1.536225    5.833600   -0.018255
 ---------------------------------------------------------------------
                    Distance matrix (angstroms):
                    1          2          3          4          5
     1  C    0.000000
     2  C    1.365431   0.000000
     3  C    2.499486   1.409287   0.000000
     4  C    1.409355   2.513885   3.147313   0.000000
     5  C    3.108721   2.496208   1.360857   3.147267   0.000000
     6  C    2.503469   3.142561   3.168880   1.365546   2.578475
     7  C    3.129253   3.163274   2.560828   2.496429   1.481455
     8  H    1.084260   2.079024   3.418303   2.103828   4.172496
     9  H    2.085992   1.083674   2.111499   3.431594   3.401752
    10  H    3.408646   2.114841   1.084983   4.209736   2.079896
    11  H    2.107937   3.410889   4.204526   1.083593   4.217862
    12  H    3.428865   4.208340   4.233088   2.089510   3.498999
    13  C    4.527800   3.804752   2.469753   4.491343   1.420702
    14  H    5.181159   4.230782   2.821665   5.362714   2.215644
    15  C    5.166777   4.747287   3.569958   4.750464   2.258820
    16  H    6.246093   5.800375   4.572052   5.792946   3.304348
    17  C    4.501729   4.463422   3.622189   3.760026   2.297242
    18  H    5.185399   5.352088   4.639412   4.211168   3.347688
                    6          7          8          9         10
     6  C    0.000000
     7  C    1.402484   0.000000
     8  H    3.402158   4.187686   0.000000
     9  H    4.204596   4.228053   2.315663   0.000000
    10  H    4.237870   3.488658   4.191072   2.334318   0.000000
    11  H    2.085434   3.418116   2.313010   4.189168   5.250319
    12  H    1.085435   2.101559   4.190003   5.256273   5.289542
    13  C    3.685004   2.322175   5.586078   4.578020   2.662944
    14  H    4.688462   3.364957   6.186435   4.803702   2.573582
    15  C    3.627635   2.265075   6.251016   5.655031   3.970687
    16  H    4.612906   3.296806   7.330308   6.676285   4.845161
    17  C    2.475002   1.373449   5.554865   5.498571   4.355850
    18  H    2.846551   2.189023   6.183547   6.416081   5.419983
                   11         12         13         14         15
    11  H    0.000000
    12  H    2.329741   0.000000
    13  C    5.535239   4.404461   0.000000
    14  H    6.432916   5.461505   1.078826   0.000000
    15  C    5.680822   4.028812   1.368691   2.199572   0.000000
    16  H    6.689178   4.878976   2.183414   2.658206   1.079459
    17  C    4.558671   2.668689   2.283819   3.331468   1.418260
    18  H    4.816088   2.602625   3.317392   4.330026   2.225997
                   16         17         18
    16  H    0.000000
    17  C    2.212518   0.000000
    18  H    2.651591   1.078844   0.000000
 Stoichiometry    C10H8
 Framework group  C1[X(C10H8)]
 Deg. of freedom    48
 Full point group                 C1      NOp   1
 RotChk:  IX=0 Diff= 1.43D-03
 Largest Abelian subgroup         C1      NOp   1
 Largest concise Abelian subgroup C1      NOp   1
                         Standard orientation:                         
 ---------------------------------------------------------------------
 Center     Atomic      Atomic             Coordinates (Angstroms)
 Number     Number       Type             X           Y           Z
 ---------------------------------------------------------------------
      1          6           0        2.481605   -0.032843    0.000158
      2          6           0        1.891190   -1.264027   -0.000164
      3          6           0        0.517482   -1.578692   -0.000131
      4          6           0        1.897672    1.249850    0.000166
      5          6           0       -0.547571   -0.731582    0.000077
      6          6           0        0.575083    1.589664   -0.000119
      7          6           0       -0.548177    0.749873   -0.000121
      8          1           0        3.565865   -0.032034    0.000359
      9          1           0        2.559106   -2.117395   -0.000332
     10          1           0        0.283621   -2.638172   -0.000238
     11          1           0        2.604082    2.071532    0.000308
     12          1           0        0.347551    2.650983   -0.000276
     13          6           0       -1.911207   -1.130193    0.000132
     14          1           0       -2.244439   -2.156264    0.000311
     15          6           0       -2.685076   -0.001280    0.000104
     16          1           0       -3.764224    0.024634    0.000184
     17          6           0       -1.861108    1.153077   -0.000110
     18          1           0       -2.210924    2.173633   -0.000268
 ---------------------------------------------------------------------
 Rotational constants (GHZ):           2.8877797           1.2728082           0.8834304
 Leave Link  202 at Wed Apr 24 16:30:03 2024, MaxMem= 34359738368 cpu:               6.3 elap:               0.4
 (Enter /apps/gaussian/g16-c01-avx2/g16/l301.exe)
 Standard basis: def2TZVP (5D, 7F)
 Ernie: Thresh=  0.10000D-02 Tol=  0.10000D-05 Strict=F.
 There are   408 symmetry adapted cartesian basis functions of A   symmetry.
 There are   358 symmetry adapted basis functions of A   symmetry.
   358 basis functions,   574 primitive gaussians,   408 cartesian basis functions
    34 alpha electrons       34 beta electrons
       nuclear repulsion energy       456.9031161999 Hartrees.
 IExCor=20419 DFT=T Ex+Corr=CAM-B3LYP ExCW=0 ScaHFX=  1.000000
 ScaDFX=  1.000000  1.000000  1.000000  0.810000 ScalE2=  1.000000  1.000000
 IRadAn=      5 IRanWt=     -1 IRanGd=            0 ICorTp=0 IEmpDi=  4
 HFx  wShort=  0.000000 wLong=  0.330000 cFull=  0.190000 cShort=  0.000000 cLong=  0.460000
 DFx  wShort=  0.000000 wLong=  0.330000 cFull=  0.190000 cShort=  0.000000 cLong=  0.460000
 NAtoms=   18 NActive=   18 NUniq=   18 SFac= 1.00D+00 NAtFMM=   60 NAOKFM=F Big=F
 Integral buffers will be    131072 words long.
 Raffenetti 2 integral format.
 Two-electron integral symmetry is turned on.
 Leave Link  301 at Wed Apr 24 16:30:05 2024, MaxMem= 34359738368 cpu:               2.5 elap:               0.2
 (Enter /apps/gaussian/g16-c01-avx2/g16/l302.exe)
 NPDir=0 NMtPBC=     1 NCelOv=     1 NCel=       1 NClECP=     1 NCelD=      1
         NCelK=      1 NCelE2=     1 NClLst=     1 CellRange=     0.0.
 One-electron integrals computed using PRISM.
 One-electron integral symmetry used in STVInt
   1 Symmetry operations used in ECPInt.
 ECPInt:  NShTT=   10153 NPrTT=   31120 LenC2=    9891 LenP2D=   23931.
 LDataN:  DoStor=T MaxTD1= 6 Len=  172
 NBasis=   358 RedAO= T EigKep=  1.48D-05  NBF=   358
 NBsUse=   358 1.00D-06 EigRej= -1.00D+00 NBFU=   358
 Precomputing XC quadrature grid using
 IXCGrd= 4 IRadAn=           5 IRanWt=          -1 IRanGd=           0 AccXCQ= 0.00D+00.
 Generated NRdTot=       0 NPtTot=           0 NUsed=           0 NTot=          32
 NSgBfM=   406   406   406   406   406 MxSgAt=    18 MxSgA2=    18.
 Leave Link  302 at Wed Apr 24 16:30:06 2024, MaxMem= 34359738368 cpu:               8.8 elap:               0.3
 (Enter /apps/gaussian/g16-c01-avx2/g16/l303.exe)
 DipDrv:  MaxL=1.
 Leave Link  303 at Wed Apr 24 16:30:07 2024, MaxMem= 34359738368 cpu:               1.0 elap:               0.1
 (Enter /apps/gaussian/g16-c01-avx2/g16/l401.exe)
 Initial guess from the checkpoint file:  "az_s0.chk"
 B after Tr=    -0.000000    0.000000   -0.000000
         Rot=    1.000000    0.000000   -0.000000   -0.000488 Ang=   0.06 deg.
 Guess basis will be translated and rotated to current coordinates.
 JPrj=2 DoOrth=T DoCkMO=T.
 Generating alternative initial guess.
 ExpMin= 9.52D-02 ExpMax= 1.36D+04 ExpMxC= 4.63D+02 IAcc=3 IRadAn=         5 AccDes= 0.00D+00
 Harris functional with IExCor=20419 and IRadAn=       5 diagonalized for initial guess.
 HarFok:  IExCor=20419 AccDes= 0.00D+00 IRadAn=         5 IDoV= 1 UseB2=F ITyADJ=14
 ICtDFT=  3500011 ScaDFX=  1.000000  1.000000  1.000000  1.000000
 FoFCou: FMM=F IPFlag=           0 FMFlag=      100000 FMFlg1=           0
         NFxFlg=           0 DoJE=T BraDBF=F KetDBF=T FulRan=T
         wScrn=  0.000000 ICntrl=       500 IOpCl=  0 I1Cent=   200000004 NGrid=           0
         NMat0=    1 NMatS0=      1 NMatT0=    0 NMatD0=    1 NMtDS0=    0 NMtDT0=    0
 Petite list used in FoFCou.
 Harris En= -369.913258728604    
 Leave Link  401 at Wed Apr 24 16:30:08 2024, MaxMem= 34359738368 cpu:              23.9 elap:               0.8
 (Enter /apps/gaussian/g16-c01-avx2/g16/l502.exe)
 Integral symmetry usage will be decided dynamically.
 Closed shell SCF:
 Using DIIS extrapolation, IDIIS=  1040.
 NGot= 34359738368 LenX= 34359388334 LenY= 34359221429
 Requested convergence on RMS density matrix=1.00D-08 within 128 cycles.
 Requested convergence on MAX density matrix=1.00D-06.
 Requested convergence on             energy=1.00D-06.
 No special actions if energy rises.
 Fock matrices will be formed incrementally for  20 cycles.
 Integral accuracy reduced to 1.0D-05 until final iterations.

 Cycle   1  Pass 0  IDiag  1:
 FoFJK:  IHMeth= 1 ICntrl=       0 DoSepK=T KAlg= 0 I1Cent=           0 FoldK=F
 IRaf=         1 NMat=       1 IRICut=       1 DoRegI=T DoRafI=F ISym2E= 0 IDoP0=0 IntGTp=1.
 FoFCou: FMM=F IPFlag=           0 FMFlag=      100000 FMFlg1=           0
         NFxFlg=           0 DoJE=T BraDBF=F KetDBF=F FulRan=T
         wScrn=  0.000000 ICntrl=       500 IOpCl=  0 I1Cent=           0 NGrid=           0
         NMat0=    1 NMatS0=      1 NMatT0=    0 NMatD0=    1 NMtDS0=    0 NMtDT0=    0
 Symmetry not used in FoFCou.
 E= -385.738350750968    
 DIIS: error= 1.42D-03 at cycle   1 NSaved=   1.
 NSaved= 1 IEnMin= 1 EnMin= -385.738350750968     IErMin= 1 ErrMin= 1.42D-03
 ErrMax= 1.42D-03  0.00D+00 EMaxC= 1.00D-01 BMatC= 1.48D-03 BMatP= 1.48D-03
 IDIUse=3 WtCom= 9.86D-01 WtEn= 1.42D-02
 Coeff-Com:  0.100D+01
 Coeff-En:   0.100D+01
 Coeff:      0.100D+01
 Gap=     0.775 Goal=   None    Shift=    0.000
 GapD=    0.775 DampG=2.000 DampE=1.000 DampFc=2.0000 IDamp=-1.
 RMSDP=2.35D-04 MaxDP=5.94D-03              OVMax= 1.32D-02

 Cycle   2  Pass 0  IDiag  1:
 RMSU=  2.34D-04    CP:  1.00D+00
 E= -385.739553497245     Delta-E=       -0.001202746278 Rises=F Damp=F
 DIIS: error= 7.16D-04 at cycle   2 NSaved=   2.
 NSaved= 2 IEnMin= 2 EnMin= -385.739553497245     IErMin= 2 ErrMin= 7.16D-04
 ErrMax= 7.16D-04  0.00D+00 EMaxC= 1.00D-01 BMatC= 1.28D-04 BMatP= 1.48D-03
 IDIUse=3 WtCom= 9.93D-01 WtEn= 7.16D-03
 Coeff-Com:  0.111D+00 0.889D+00
 Coeff-En:   0.000D+00 0.100D+01
 Coeff:      0.110D+00 0.890D+00
 Gap=     0.210 Goal=   None    Shift=    0.000
 RMSDP=5.08D-05 MaxDP=1.42D-03 DE=-1.20D-03 OVMax= 7.65D-03

 Cycle   3  Pass 0  IDiag  1:
 RMSU=  5.04D-05    CP:  1.00D+00  9.73D-01
 E= -385.739624382696     Delta-E=       -0.000070885451 Rises=F Damp=F
 DIIS: error= 1.02D-03 at cycle   3 NSaved=   3.
 NSaved= 3 IEnMin= 3 EnMin= -385.739624382696     IErMin= 2 ErrMin= 7.16D-04
 ErrMax= 1.02D-03  0.00D+00 EMaxC= 1.00D-01 BMatC= 9.14D-05 BMatP= 1.28D-04
 IDIUse=3 WtCom= 9.90D-01 WtEn= 1.02D-02
 Coeff-Com: -0.779D-02 0.453D+00 0.555D+00
 Coeff-En:   0.000D+00 0.308D+00 0.692D+00
 Coeff:     -0.771D-02 0.451D+00 0.557D+00
 Gap=     0.211 Goal=   None    Shift=    0.000
 RMSDP=2.86D-05 MaxDP=8.73D-04 DE=-7.09D-05 OVMax= 6.42D-03

 Cycle   4  Pass 0  IDiag  1:
 RMSU=  2.54D-05    CP:  1.00D+00  9.96D-01  7.60D-01
 E= -385.739727590167     Delta-E=       -0.000103207471 Rises=F Damp=F
 DIIS: error= 3.70D-04 at cycle   4 NSaved=   4.
 NSaved= 4 IEnMin= 4 EnMin= -385.739727590167     IErMin= 4 ErrMin= 3.70D-04
 ErrMax= 3.70D-04  0.00D+00 EMaxC= 1.00D-01 BMatC= 1.02D-05 BMatP= 9.14D-05
 IDIUse=3 WtCom= 9.96D-01 WtEn= 3.70D-03
 Coeff-Com: -0.118D-01 0.102D+00 0.277D+00 0.633D+00
 Coeff-En:   0.000D+00 0.000D+00 0.000D+00 0.100D+01
 Coeff:     -0.117D-01 0.102D+00 0.276D+00 0.634D+00
 Gap=     0.211 Goal=   None    Shift=    0.000
 RMSDP=1.34D-05 MaxDP=2.86D-04 DE=-1.03D-04 OVMax= 2.83D-03

 Cycle   5  Pass 0  IDiag  1:
 RMSU=  1.16D-05    CP:  1.00D+00  9.90D-01  8.86D-01  1.04D+00
 E= -385.739748141813     Delta-E=       -0.000020551646 Rises=F Damp=F
 DIIS: error= 2.04D-04 at cycle   5 NSaved=   5.
 NSaved= 5 IEnMin= 5 EnMin= -385.739748141813     IErMin= 5 ErrMin= 2.04D-04
 ErrMax= 2.04D-04  0.00D+00 EMaxC= 1.00D-01 BMatC= 1.22D-06 BMatP= 1.02D-05
 IDIUse=3 WtCom= 9.98D-01 WtEn= 2.04D-03
 Coeff-Com: -0.192D-02-0.639D-01-0.214D-01 0.176D+00 0.911D+00
 Coeff-En:   0.000D+00 0.000D+00 0.000D+00 0.000D+00 0.100D+01
 Coeff:     -0.192D-02-0.638D-01-0.214D-01 0.176D+00 0.911D+00
 Gap=     0.211 Goal=   None    Shift=    0.000
 RMSDP=1.30D-05 MaxDP=3.40D-04 DE=-2.06D-05 OVMax= 2.89D-03

 Cycle   6  Pass 0  IDiag  1:
 RMSU=  6.90D-06    CP:  1.00D+00  9.86D-01  9.75D-01  1.32D+00  1.61D+00
 E= -385.739756709452     Delta-E=       -0.000008567639 Rises=F Damp=F
 DIIS: error= 1.32D-04 at cycle   6 NSaved=   6.
 NSaved= 6 IEnMin= 6 EnMin= -385.739756709452     IErMin= 6 ErrMin= 1.32D-04
 ErrMax= 1.32D-04  0.00D+00 EMaxC= 1.00D-01 BMatC= 3.48D-07 BMatP= 1.22D-06
 IDIUse=3 WtCom= 9.99D-01 WtEn= 1.32D-03
 Coeff-Com:  0.336D-02-0.551D-01-0.919D-01-0.137D+00 0.236D+00 0.104D+01
[...]
 0.0000399,0.0115845,0.0297194,-0.1490153,-0.0001233,-0.1052143,0.09977
 93,0.0001295,-0.0001069,0.0001519,-0.1167726,-0.1388878,0.1572255,0.00
 01264,0.261295,0.1250721,-0.0000699,0.0001596,-0.0000311,0.0115837,0.0
 431433,-0.0683986,0.0000113,-0.0683992,-0.0697701,-0.000043,0.0000119,
 -0.0000428,0.1248449,0.0377317,0.0653885,0.0000737,0.0588602,-0.073459
 9,-0.0001103,0.0000718,-0.000113,0.1442756,-0.0750135,0.0414769,0.0001
 074,0.0099263,0.0535572,-0.0000333,0.0000948,-0.0000454,0.1278823,-0.0
 894,-0.0460741,0.0000894,-0.0395461,0.0536727,-0.0000164,0.0000924,-0.
 0000125,0.1442762,-0.0237761,0.0522174,0.0000889,0.0837675,0.0023215,-
 0.0000864,0.0001017,-0.00007,0.1278818,0.0352243,-0.0825911,-0.0001293
 ,0.1808772,-0.4773408,-0.0001983,-0.000076,-0.0000877,-0.1893441,-0.03
 33746,-0.0009081,0.0000862,0.0406092,0.0745377,-0.0000503,0.00012,-0.0
 000212,0.1643712,0.4679219,-0.1320201,-0.0003045,-0.1320242,0.2499716,
 0.0001823,-0.0002732,0.0002372,-0.0865811,0.0889851,-0.0622298,0.00000
 25,-0.0622285,-0.0137408,-0.0000295,-0.000015,-0.000067,0.1449189,-0.3
 178906,-0.1105875,0.0000103,-0.3740449,-0.1242264,0.000195,-0.0000703,
 0.0000486,-0.1893431,0.011318,0.0775009,0.0001016,0.0359805,0.0298461,
 -0.0000675,0.0000843,-0.0000705,0.1643708\Polar=143.9476187,22.7735957
 ,181.5420031,-0.0291844,0.0359641,60.5197328\Quadrupole=2.8614342,3.49
 11834,-6.3526176,0.3815312,-0.0040381,0.0035533\PG=C01 [X(C10H8)]\NIma
 g=0\\0.64878733,0.00869897,0.66315503,-0.00023605,0.00020120,0.1269114
 0,-0.28529551,-0.03734383,0.00009104,0.62504250,0.04823397,-0.12411727
 ,-0.00004918,-0.02982177,0.65768897,0.00012451,-0.00000957,-0.05537636
 ,-0.00024841,0.00022355,0.10754756,-0.04751238,-0.02141904,0.00001690,
 -0.18530887,-0.11943278,0.00001583,0.66965194,-0.07602171,0.02304566,0
 .00004125,-0.00204087,-0.20184360,-0.00005527,-0.00927562,0.58833828,-
 0.00000563,0.00001678,0.00488010,0.00006070,-0.00000340,-0.04919591,-0
 .00025548,0.00018803,0.11402301,-0.19477742,0.12295113,0.00011049,-0.0
 4376021,0.02460703,0.00003371,0.00581922,0.01234145,0.00000025,0.67374
 460,0.03737422,-0.21464017,-0.00007858,0.04889789,0.01691168,-0.000019
 15,-0.01737031,-0.00078386,0.00000899,0.01037188,0.60898965,0.00007758
 ,-0.00011705,-0.05538636,0.00004327,-0.00000764,0.00870164,-0.00001224
 ,-0.00000454,-0.00483215,-0.00025623,0.00018631,0.10756133,-0.00287456
 ,0.00995107,0.00000235,0.01575631,-0.02568034,-0.00001364,-0.13457313,
 0.05867380,0.00006001,0.00390017,-0.01289330,-0.00000736,0.53779913,0.
 03974319,-0.00197056,-0.00001662,-0.08488785,-0.08652279,0.00000224,0.
 08346103,-0.21132679,-0.00009986,-0.00556130,-0.02530604,-0.00000726,-
 0.02893351,0.66143164,0.00001555,-0.00000401,-0.00287450,-0.00003715,-
 0.00002398,0.00640353,0.00006796,-0.00008859,-0.05718639,-0.00000539,-
 0.00000300,-0.00231265,-0.00019014,0.00021318,0.14216008,0.04229166,-0
 .00189713,-0.00001771,0.00436057,0.01113763,0.00000004,0.00531255,-0.0
 3696849,-0.00001547,-0.13550861,0.03906389,0.00005559,-0.02261918,0.03
 765635,0.00002746,0.63039908,0.05270473,-0.06675736,-0.00005085,-0.018
 57413,0.00067440,0.00001010,0.01322905,-0.01428185,-0.00001163,-0.0783
 2798,-0.25164221,-0.00004047,0.01577414,0.05073223,0.00001066,-0.04167
 591,0.62759440,0.00000299,-0.00002678,0.00488306,-0.00001114,-0.000002
 69,-0.00483414,0.00000216,0.00001167,0.00106431,0.00001050,-0.00009530
 ,-0.04920124,0.00002065,-0.00000123,0.00595235,-0.00025120,0.00021563,
 0.11401660,-0.02673215,0.02004894,0.00001960,-0.00441227,-0.01242190,-
 0.00000462,-0.00522148,0.05201638,0.00002254,0.00920365,-0.09029444,-0
 .00003632,-0.20138465,-0.01357286,0.00005637,-0.25000734,-0.01181751,0
 .00008150,0.63974704,-0.00974497,0.02188894,0.00001300,-0.01975091,-0.
 01699401,0.00000310,0.03013343,0.03333391,-0.00000244,-0.03108747,-0.0
 7997209,-0.00001875,0.04982047,-0.17146692,-0.00006028,-0.03660466,-0.
 09589663,0.00000266,0.05520791,0.55947951,0.00000740,0.00000034,-0.002
 87354,-0.00000681,-0.00000054,-0.00231312,0.00001807,-0.00001362,0.005
 95110,-0.00001314,0.00000868,0.00640157,0.00007716,-0.00002807,-0.0716
 6922,0.00007276,-0.00001089,-0.05717521,-0.00020458,0.00013361,0.14215
 351,-0.10815877,-0.10732716,-0.00000867,-0.01375801,-0.03071390,-0.000
 00246,-0.00484240,0.00106314,0.00000538,0.00939650,0.02108701,0.000006
 66,0.00018061,0.00122689,0.00000014,-0.00156253,0.00279575,0.00000452,
 -0.00045921,-0.00048759,-0.00000022,0.11863811,-0.10732727,-0.28533657
 ,-0.00004497,0.00197538,0.00145038,-0.00000283,0.00008849,0.00162260,-
 0.00000171,-0.01160219,-0.02170385,-0.00000540,0.00004055,0.00015102,0
 .00000027,0.00377037,-0.00165731,-0.00000462,0.00069877,0.00079088,0.0
 0000018,0.11218364,0.30383278,-0.00000855,-0.00004498,-0.03802160,0.00
 000999,0.00001215,0.00639076,0.00000496,-0.00000228,0.00602792,-0.0000
 0598,-0.00002021,0.00639079,-0.00000022,-0.00000019,-0.00055912,0.0000
 0488,-0.00000441,0.00602798,0.00000027,0.00000090,-0.00055905,-0.00000
 126,0.00005564,0.02273797,-0.01364967,0.03064771,0.00001956,-0.1092738
 6,0.10780460,0.00007642,0.00995849,-0.01986875,-0.00001028,-0.00457207
 ,-0.00110383,0.00000412,-0.00211536,-0.00354885,0.00000213,-0.00023275
 ,-0.00117289,-0.00000043,0.00030057,-0.00037746,-0.00000033,0.00058430
 ,0.00011814,-0.00000178,0.11874925,-0.00182498,0.00149118,0.00000009,0
 .10812784,-0.28794902,-0.00014719,0.01184010,-0.02054696,-0.00001478,-
 0.00044767,0.00164263,-0.00000118,-0.00415994,-0.00235465,-0.00000125,
 -0.00004183,0.00008294,0.00000009,-0.00024540,0.00001080,0.00000019,-0
 .00007179,0.00147300,0.00000191,-0.11350446,0.30587531,0.00000717,-0.0
 0001472,0.00349822,0.00007652,-0.00014710,-0.03214195,0.00000174,-0.00
 000021,0.00402985,0.00000440,-0.00000088,0.00528374,0.00000198,-0.0000
 0158,0.00562462,0.,0.00000057,-0.00016533,-0.00000024,0.00000025,-0.00
 012903,-0.00000186,0.00000178,-0.00339098,-0.00008796,0.00016069,0.021
 21981,-0.00001225,-0.00371935,0.00000105,-0.01734088,0.00605740,0.0000
 1256,-0.32231998,0.05913883,0.00015157,0.00028396,0.00029629,0.0000000
 8,-0.00670996,0.00203804,0.00000602,-0.00028356,-0.00042731,-0.0000000
 4,0.00232679,0.00063533,0.00000146,-0.00096361,-0.00001851,0.00000005,
 0.00104998,-0.00031382,-0.00000194,0.34317741,-0.00226666,-0.00330648,
 -0.00000238,-0.02591273,0.00729305,0.00001238,0.05988951,-0.07276930,-
 0.00004138,0.00001113,-0.00002097,-0.00000010,0.03317783,-0.00481168,-
 0.00001872,-0.00055927,-0.00034869,0.00000013,-0.00093075,-0.00362453,
 -0.00000295,-0.00099438,-0.00018945,0.00000071,-0.00025519,0.00093432,
 0.00000165,-0.06318836,0.07785624,0.00000145,-0.00000179,0.00563353,0.
 00000087,-0.00000157,0.00545708,0.00015155,-0.00004185,-0.03476944,0.0
 0000010,-0.00000013,0.00020946,0.00001814,-0.00000408,0.00514565,-0.00
 000031,-0.00000004,-0.00003815,0.00000108,-0.00000333,0.00506419,-0.00
 000034,0.00000025,-0.00083660,-0.00000196,0.00000168,-0.00308374,-0.00
 016860,0.00005007,0.02101614,-0.01879404,-0.00607128,0.00000790,-0.000
 11391,0.00323201,0.00000371,0.00055133,0.00060536,-0.00000010,-0.32155
 645,-0.06708860,0.00010721,0.00043400,-0.00013527,-0.00000030,-0.00424
 415,0.00011739,0.00000383,0.00152676,-0.00115373,0.00000142,0.00109011
 ,0.00034573,-0.00000190,-0.00097846,0.00001327,0.00000052,-0.00006458,
 -0.00002796,-0.00000014,0.34149602,0.02640133,0.00663587,-0.00001089,0
 .00257581,-0.00281547,-0.00000430,-0.00052566,-0.00070113,0.,-0.067411
 60,-0.07566704,0.00001437,-0.00026740,-0.00012268,0.00000014,-0.031591
 58,-0.00634421,0.00001052,-0.00054259,-0.00599691,-0.00000419,0.000535
 57,0.00096718,0.00000142,0.00096222,-0.00017329,-0.00000057,0.00004387
 ,0.00012203,0.00000015,0.07034918,0.08312875,0.00002043,0.00000393,0.0
 0349779,0.00000347,-0.00000454,0.00528405,-0.00000054,-0.00000061,-0.0
 0016563,0.00010687,0.00001444,-0.03214119,-0.00000038,0.00000023,-0.00
 012889,-0.00000830,-0.00000426,0.00402942,0.00000172,-0.00000379,0.005
 62476,-0.00000184,0.00000151,-0.00339109,0.00000089,-0.00000014,0.0001
 6922,-0.00000010,0.00000018,-0.00031510,-0.00012009,-0.00000869,0.0212
 1962,0.00096708,-0.00145826,0.00000156,-0.00004828,-0.00026313,0.00000
 001,0.00016203,-0.00019150,-0.00000015,0.00705867,-0.00577347,-0.00000
 291,-0.00106784,-0.00373269,0.00000131,-0.23232622,0.13417043,0.000141
 44,-0.02286967,0.01983970,0.00002041,-0.00000588,-0.00020389,-0.000000
 46,0.00003860,0.00005721,-0.00000014,-0.00007922,0.00014229,-0.0000001
 8,0.00126053,-0.00008141,-0.00000201,0.24741116,-0.00291099,-0.0042859
 3,-0.00000246,0.00002201,0.00031133,0.00000004,-0.00005951,-0.00079429
 ,-0.00000026,0.02619670,-0.01710653,-0.00002060,-0.00216662,-0.0002298
 1,-0.00000104,0.13341979,-0.16276326,-0.00010982,-0.01130007,0.0113478
 5,0.00000752,0.00077200,-0.00114718,-0.00000048,0.00012903,0.00001885,
 0.00000006,0.00002102,0.00005558,0.00000024,-0.00014003,0.00072376,0.0
 0000154,-0.14223379,0.17362289,0.00000098,-0.00000326,0.00563353,0.000
 00026,0.00000039,0.00020944,-0.00000013,-0.00000048,-0.00003809,0.0000
 0941,-0.00000567,0.00545716,0.00000200,0.,0.00506408,0.00014070,-0.000
 11051,-0.03476993,0.00000879,-0.00000621,0.00514589,-0.00000009,-0.000
 00003,-0.00083667,-0.00000011,0.00000009,-0.00031509,-0.00000022,0.000
 00018,-0.00059640,-0.00000207,0.00000150,-0.00308369,-0.00015768,0.000
 12327,0.02101629,0.00335896,-0.00474381,-0.00000355,0.00466756,0.00711
 218,0.00000246,0.01502656,-0.01340689,-0.00000713,-0.00379533,0.013230
 96,0.00000718,-0.18911303,-0.08182986,0.00002293,-0.01292004,-0.006782
 24,0.00000298,-0.04422301,0.00091991,0.00002275,-0.00001473,-0.0000973
 0,-0.00000010,0.00031362,0.00080627,-0.00000011,0.00111596,0.00083040,
 -0.00000195,0.00000292,0.00016083,0.,-0.00128654,-0.00081407,0.0000004
 1,0.79203848,0.00678851,-0.01692219,-0.00000957,0.02449906,0.02475071,
 -0.00000275,-0.01976078,-0.09799567,-0.00003257,-0.00566551,0.04851693
 ,0.00002125,-0.07473467,-0.12721526,0.00000803,-0.03641693,-0.04644650
 ,-0.00000071,0.03830732,0.03182186,-0.00000864,-0.00074557,0.00020614,
 0.00000038,-0.00071136,-0.00061451,0.00000030,-0.00209629,0.00050112,0
 .00000207,-0.00031951,0.00143466,0.00000064,-0.00008234,-0.00006731,-0
 .00000023,-0.06995614,0.50326216,0.00000201,-0.00000471,-0.00023297,0.
 00000836,0.00000396,0.00447883,-0.00000965,-0.00003410,0.00897490,-0.0
 0000084,0.00001323,0.00035107,0.00002628,0.00001027,-0.06228607,-0.000
 00824,-0.00001525,-0.00000145,0.00003772,0.00000903,0.00719740,-0.0000
 0031,0.00000014,-0.00011263,-0.00000065,-0.00000042,-0.00045763,-0.000
 00284,0.00000120,-0.00356737,-0.00000020,0.00000055,-0.00015988,0.0000
 0063,0.00000023,0.00019929,-0.00032538,0.00017603,0.10826016,-0.000642
 72,0.00027727,0.00000034,0.00090721,0.00012693,-0.00000048,0.00026791,
 0.00019239,-0.00000095,0.00036931,-0.00033114,-0.00000032,-0.01060285,
 0.00755214,0.00000919,-0.00059382,0.00095369,0.00000069,-0.00124933,-0
 .00244154,0.00000098,0.00001462,-0.00000993,0.,-0.00001325,-0.00004886
 ,0.,0.00033674,-0.00073601,-0.00000016,-0.00001274,-0.00004124,0.00000
 002,-0.00021909,-0.00017127,0.00000002,-0.35041634,0.03418072,0.000154
 48,0.36729291,0.00046457,-0.00002748,-0.00000015,-0.00024682,-0.000519
 36,0.00000005,0.00001455,0.00276151,0.00000171,-0.00020159,0.00011521,
 0.00000015,-0.02052028,0.00797487,0.00001103,-0.00030018,0.00121240,0.
 00000049,-0.00337500,-0.00456472,-0.00000150,0.00002811,-0.00000167,-0
 .00000004,-0.00002615,-0.00003878,-0.00000003,0.00067360,-0.00032265,-
 0.00000067,0.00000277,-0.00001352,-0.00000003,-0.00040250,-0.00013044,
 0.00000016,0.03347424,-0.06441623,-0.00002832,-0.03780774,0.05525754,-
 0.00000010,-0.00000002,-0.00013258,0.00000010,0.00000028,-0.00035324,-
 0.00000123,0.00000095,-0.00205980,-0.00000008,0.00000016,-0.00001843,-
 0.00000212,-0.00000081,0.00333545,-0.00000009,0.,0.00023014,0.00000086
 ,-0.00000162,0.00311834,0.00000003,-0.00000001,0.00004966,0.00000003,0
 .,0.00004336,0.00000040,-0.00000005,0.00064346,0.00000004,-0.00000003,
 0.00006859,-0.00000008,0.00000002,-0.00005615,0.00015568,-0.00002891,-
 0.02668779,-0.00016767,0.00003042,0.01755797,0.01426958,-0.00559396,-0
 .00000894,-0.01607719,-0.00715734,0.00000482,0.00389670,0.00860837,0.0
 0000250,-0.00689459,0.00495038,0.00000451,0.03345872,-0.01005345,-0.00
 001487,0.01128810,0.00037223,-0.00000224,-0.02179629,-0.06671372,-0.00
 001210,-0.00064942,0.00032101,0.00000051,-0.00113880,-0.00071666,0.000
 00019,-0.00051370,0.00010264,0.00000028,-0.00028473,0.00077872,0.00000
 035,-0.00035897,0.00070677,0.00000043,-0.17005822,0.05441724,0.0000684
 3,-0.00493459,0.02477399,0.00001242,0.58075901,-0.00559333,0.00503523,
 0.00000437,-0.00262859,-0.00871559,-0.00000241,-0.00572889,0.01869973,
 0.00000871,0.00042201,-0.01789722,-0.00000696,-0.02110996,-0.08515965,
 -0.00002611,0.01470834,0.01130770,-0.00000389,-0.05565769,-0.02990830,
 0.00001089,0.00032099,-0.00011953,-0.00000029,0.00007379,-0.00023351,0
 .,0.00057912,0.00030901,0.,-0.00001174,-0.00108754,-0.00000025,0.00023
 022,0.00015435,0.00000008,0.11128094,-0.24669147,-0.00011420,-0.003165
 46,0.00547987,0.00000233,0.10764385,0.75843476,-0.00000838,0.00000453,
 0.00023732,0.00000581,-0.00000014,-0.00038351,-0.00000280,0.00000248,0
 .00321749,0.00000319,-0.00000926,-0.00038397,-0.00001871,-0.00003187,0
 .00894661,0.00000231,0.00000309,0.00321748,-0.00000781,0.00001564,0.00
 894775,0.00000055,-0.00000030,0.00030075,0.00000043,0.00000031,-0.0002
 0811,0.00000036,0.00000019,-0.00018321,0.00000003,-0.00000069,-0.00020
 814,0.00000020,-0.00000017,-0.00018315,0.00008807,-0.00008928,-0.05990
 609,0.00000235,-0.00001009,0.00240218,-0.00016671,0.00018203,0.1277932
 3,-0.00087780,0.00052984,0.00000063,0.00057103,0.00033910,-0.00000020,
 0.00062467,0.00018355,-0.00000020,-0.00012227,-0.00106932,-0.00000046,
 -0.00184952,0.00347903,0.00000387,0.00091131,-0.00068616,-0.00000077,-
 0.00612975,-0.00114771,0.00000444,-0.00001615,-0.00000010,-0.00000006,
 0.00004132,0.00006510,0.00000005,0.00000286,-0.00003546,0.00000001,-0.
 00003599,-0.00013235,0.00000002,0.00001683,0.00003916,0.00000005,0.012
 86307,0.01390792,0.00000194,0.00012903,-0.00104984,-0.00000137,-0.1146
 1640,-0.11214265,-0.00000620,0.10918502,0.00052984,-0.00000310,-0.0000
 0028,-0.00049710,-0.00072504,0.,-0.00092277,0.00049656,0.00000067,-0.0
 0023316,-0.00003177,0.00000018,0.00238518,-0.00420567,-0.00000393,0.00
 042023,0.00020988,-0.00000002,-0.00005404,0.00007466,-0.00000140,-0.00
 000010,-0.00001632,0.00000005,-0.00006854,-0.00009150,-0.00000005,0.00
 002763,0.00001988,-0.00000002,0.00000129,-0.00001420,-0.00000005,-0.00
 002393,0.00000591,-0.00000002,-0.01425688,-0.01140755,-0.00000037,0.00
 044572,0.00059706,0.00000078,-0.11214247,-0.29973825,-0.00004717,0.122
 83029,0.31195042,0.00000057,-0.00000044,0.00008834,-0.00000026,0.00000
 006,-0.00020688,-0.00000066,-0.00000052,-0.00015060,-0.00000001,0.0000
 0104,-0.00020696,0.00000321,-0.00000359,0.00406910,-0.00000083,-0.0000
 0001,-0.00015053,0.00000557,-0.00000059,0.00406933,-0.00000006,0.00000
 005,-0.00015512,0.00000003,-0.00000010,0.00011438,0.00000005,-0.000000
 02,0.00007735,0.00000006,0.00000003,0.00011438,0.,-0.00000005,0.000077
 34,-0.00000817,-0.00001256,0.00556358,-0.00000076,0.00000143,-0.002055
 54,-0.00000714,-0.00004909,-0.03609974,0.00000611,0.00005280,0.0213436
 3,-0.00970640,-0.00399709,0.00000307,0.02360411,0.01695076,-0.00000399
 ,-0.01165283,-0.03537116,-0.00000775,0.00109330,0.02155045,0.00001022,
 -0.01825312,0.05974459,0.00003440,-0.03591454,-0.06180809,-0.00000415,
 -0.07543280,0.01909785,0.00001430,0.00053045,-0.00029562,-0.00000040,0
 .00093239,0.00044765,-0.00000037,-0.00012126,0.00087944,0.00000027,-0.
 00028502,-0.00120542,-0.00000054,0.00137165,-0.00188531,-0.00000320,-0
 .05279461,0.03868121,0.00004463,-0.00043004,0.00328561,0.00000225,-0.2
 9700065,-0.05035140,0.00009418,-0.00140123,0.00213408,0.00000382,0.688
 98768,-0.01552819,-0.00385554,0.00000612,0.03584670,0.02111687,-0.0000
 0813,-0.00573645,-0.04771379,-0.00001627,0.00416201,0.02832532,0.00000
 718,0.02235515,0.00585114,-0.00000982,-0.05545342,-0.04705580,0.000003
 14,0.01200524,-0.24088281,-0.00007468,0.00035268,-0.00033904,-0.000000
 28,0.00092802,0.00050515,-0.00000014,0.00014775,-0.00123261,-0.0000007
 8,0.00031215,-0.00001585,-0.00000009,0.00104151,0.00024532,0.00000050,
 0.02642352,0.00094264,-0.00001735,0.00122635,-0.00399482,-0.00000337,0
 .00651136,-0.11976365,-0.00002532,-0.02603069,0.00285696,0.00001117,-0
 .15502997,0.60631547,-0.00000261,0.00000097,-0.00023263,0.00000384,0.0
 0000028,0.00035052,0.00000280,-0.00000212,-0.00000075,0.00000329,-0.00
 000192,0.00447920,0.00001972,-0.00002887,0.00719700,-0.00000010,0.0000
 0794,0.00897463,0.00001030,-0.00007905,-0.06228975,-0.00000018,0.00000
 005,-0.00011264,-0.00000013,0.00000006,-0.00015991,0.00000020,-0.00000
 098,0.00019929,0.00000005,0.00000069,-0.00045757,-0.00000185,0.0000023
 6,-0.00356729,0.00004113,-0.00002226,0.01541558,0.00000187,-0.00000389
 ,0.00297075,0.00011501,0.00000190,-0.05990881,-0.00000695,-0.00000222,
 0.00556356,-0.00032968,0.00026195,0.10826627,-0.00064097,0.00046599,0.
 00000042,0.00047970,-0.00011046,-0.00000027,0.00015966,0.00032173,0.00
 000017,0.00011757,-0.00089856,-0.00000056,-0.00036574,-0.00264564,0.00
 000052,0.00164949,0.00115481,-0.00000130,0.00681314,-0.00614483,-0.000
 00398,-0.00000399,0.00001275,0.00000003,0.00000569,0.00001797,0.000000
 04,0.00011531,-0.00012648,-0.00000013,0.00000838,-0.00000828,0.0000000
 1,-0.00002481,0.00037516,0.00000045,-0.00476531,-0.00029289,0.00000362
 ,-0.00020296,0.00121266,0.00000094,-0.00934857,0.02113045,0.00001313,0
 .00070397,-0.00057527,-0.00000152,-0.21352707,0.14646629,0.00014331,0.
 21882650,0.00027878,-0.00002925,-0.00000010,-0.00024009,0.00000478,0.0
 0000012,0.00157566,0.00045899,-0.00000061,-0.00052488,0.00027035,0.000
 00050,-0.00171216,-0.00544840,-0.00000258,0.00133280,0.00137990,0.0000
 0075,0.02192769,-0.00944148,-0.00001492,-0.00002530,0.00001695,0.,-0.0
 0002604,-0.00003194,-0.00000003,0.00010475,-0.00046485,-0.00000021,-0.
 00003100,-0.00006042,-0.00000002,-0.00103446,0.00003892,0.00000024,-0.
 00235207,0.00034049,0.00000008,-0.00020202,0.00063123,-0.00000010,-0.0
 0680897,0.00989406,0.00000602,0.00092030,0.00002208,0.00000038,0.14717
 241,-0.20130493,-0.00013487,-0.16035539,0.20372355,0.00000066,-0.00000
 044,-0.00013275,-0.00000047,0.00000011,-0.00001829,0.00000078,-0.00000
 018,0.00023007,-0.00000057,0.00000125,-0.00035301,0.00000108,-0.000001
 88,0.00311836,-0.00000151,0.00000034,-0.00205998,0.00000726,-0.0000021
 3,0.00333510,0.00000002,-0.00000002,0.00004966,0.,-0.00000005,0.000068
 58,-0.00000005,-0.00000010,-0.00005614,0.,-0.00000002,0.00004335,-0.00
 000010,-0.00000040,0.00064345,0.00000280,-0.00000124,0.00297107,0.0000
 0039,-0.00000073,0.00094364,0.00000255,-0.00000710,0.00240192,-0.00000
 091,0.00000105,-0.00205562,0.00014295,-0.00013382,-0.02668744,-0.00015
 489,0.00014536,0.01755805\\-0.00004454,-0.00009384,0.00000028,-0.00005
 443,-0.00000240,0.,0.00003392,0.00005322,-0.00000034,0.00003223,-0.000
 04475,-0.00000013,-0.00016755,0.00008806,-0.00000365,0.00002103,0.0000
 6234,-0.00000040,0.00017276,-0.00007843,-0.00000065,0.00001430,0.00002
 996,0.00000005,0.00002159,0.00001517,-0.00000002,-0.00002223,-0.000024
 14,0.00000021,-0.00000210,0.00002660,0.00000008,-0.00000457,-0.0000328
 4,-0.00000008,-0.00003171,-0.00009678,0.00000680,-0.00002359,0.0000478
 3,0.00000020,0.00004574,0.00010400,-0.00000833,0.00000828,0.00001641,0
 .00000060,-0.00005028,-0.00008204,0.00000523,0.00005114,0.00001165,0.0
 0000016\\\@
 The archive entry for this job was punched.


 IF THERE IS ONE WAY BETTER THAN ANOTHER IT IS THE WAY OF NATURE.

                          -- ARISTOTLE
 Job cpu time:       0 days  6 hours  0 minutes 45.8 seconds.
 Elapsed time:       0 days  0 hours 13 minutes 14.0 seconds.
 File lengths (MBytes):  RWF=    877 Int=      0 D2E=      0 Chk=     24 Scr=      1
 Normal termination of Gaussian 16 at Wed Apr 24 17:54:30 2024.
