 Entering Gaussian System, Link 0=g16
 Input=az_test.gjf
 Output=az_test.log
 Initial command:
 /apps/gaussian/g16-c01-avx2/g16/l1.exe "/var/tmp/pbs.9340355.pbs/Gau-1313489.inp" -scrdir="/var/tmp/pbs.9340355.pbs/"
 Entering Link 1 = /apps/gaussian/g16-c01-avx2/g16/l1.exe PID=   1313490.
  
 Copyright (c) 1988-2019, Gaussian, Inc.  All Rights Reserved.
  
 This is part of the Gaussian(R) 16 program.  It is based on
 the Gaussian(R) 09 system (copyright 2009, Gaussian, Inc.),
 the Gaussian(R) 03 system (copyright 2003, Gaussian, Inc.),
 the Gaussian(R) 98 system (copyright 1998, Gaussian, Inc.),
 the Gaussian(R) 94 system (copyright 1995, Gaussian, Inc.),
 the Gaussian 92(TM) system (copyright 1992, Gaussian, Inc.),
 the Gaussian 90(TM) system (copyright 1990, Gaussian, Inc.),
 the Gaussian 88(TM) system (copyright 1988, Gaussian, Inc.),
 the Gaussian 86(TM) system (copyright 1986, Carnegie Mellon
 University), and the Gaussian 82(TM) system (copyright 1983,
 Carnegie Mellon University). Gaussian is a federally registered
 trademark of Gaussian, Inc.
  
 This software contains proprietary and confidential information,
 including trade secrets, belonging to Gaussian, Inc.
  
 This software is provided under written license and may be
 used, copied, transmitted, or stored only in accord with that
 written license.
  
 The following legend is applicable only to US Government
 contracts under FAR:
  
                    RESTRICTED RIGHTS LEGEND
  
 Use, reproduction and disclosure by the US Government is
 subject to restrictions as set forth in subparagraphs (a)
 and (c) of the Commercial Computer Software - Restricted
 Rights clause in FAR 52.227-19.
  
 Gaussian, Inc.
 340 Quinnipiac St., Bldg. 40, Wallingford CT 06492
  
  
 ---------------------------------------------------------------
 Warning -- This program may not be used in any manner that
 competes with the business of Gaussian, Inc. or will provide
 assistance to any competitor of Gaussian, Inc.  The licensee
 of this program is prohibited from giving any competitor of
 Gaussian, Inc. access to this program.  By using this program,
 the user acknowledges that Gaussian, Inc. is engaged in the
 business of creating and licensing software in the field of
 computational chemistry and represents and warrants to the
 licensee that it is not a competitor of Gaussian, Inc. and that
 it will not use this program in any manner prohibited above.
 ---------------------------------------------------------------
  

 Cite this work as:
 Gaussian 16, Revision C.01,
 M. J. Frisch, G. W. Trucks, H. B. Schlegel, G. E. Scuseria, 
 M. A. Robb, J. R. Cheeseman, G. Scalmani, V. Barone, 
 G. A. Petersson, H. Nakatsuji, X. Li, M. Caricato, A. V. Marenich, 
 J. Bloino, B. G. Janesko, R. Gomperts, B. Mennucci, H. P. Hratchian, 
 J. V. Ortiz, A. F. Izmaylov, J. L. Sonnenberg, D. Williams-Young, 
 F. Ding, F. Lipparini, F. Egidi, J. Goings, B. Peng, A. Petrone, 
 T. Henderson, D. Ranasinghe, V. G. Zakrzewski, J. Gao, N. Rega, 
 G. Zheng, W. Liang, M. Hada, M. Ehara, K. Toyota, R. Fukuda, 
 J. Hasegawa, M. Ishida, T. Nakajima, Y. Honda, O. Kitao, H. Nakai, 
 T. Vreven, K. Throssell, J. A. Montgomery, Jr., J. E. Peralta, 
 F. Ogliaro, M. J. Bearpark, J. J. Heyd, E. N. Brothers, K. N. Kudin, 
 V. N. Staroverov, T. A. Keith, R. Kobayashi, J. Normand, 
 K. Raghavachari, A. P. Rendell, J. C. Burant, S. S. Iyengar, 
 J. Tomasi, M. Cossi, J. M. Millam, M. Klene, C. Adamo, R. Cammi, 
 J. W. Ochterski, R. L. Martin, K. Morokuma, O. Farkas, 
 J. B. Foresman, and D. J. Fox, Gaussian, Inc., Wallingford CT, 2019.
 
 ******************************************
 Gaussian 16:  ES64L-G16RevC.01  3-Jul-2019
                26-Apr-2024 
 ******************************************
 %chk=az_test.chk
 %NProcShared=32
 Will use up to   32 processors via shared memory.
 %Mem=256GB
 -------------------------------------------------
 #p CAM-B3LYP/6-31G(d') geom=connectivity opt freq
 -------------------------------------------------
 1/18=20,19=15,26=3,38=1,57=2/1,3;
 2/9=110,12=2,17=6,18=5,40=1/2;
 3/5=11,6=6,7=1,11=2,25=1,30=1,71=1,74=-40/1,2,3;
 4//1;
 5/5=2,38=5/2;
 6/7=2,8=2,9=2,10=2,28=1/1;
 7//1,2,3,16;
 1/18=20,19=15,26=3/3(2);
 2/9=110/2;
 99//99;
 2/9=110/2;
 3/5=11,6=6,7=1,11=2,25=1,30=1,71=1,74=-40/1,2,3;
 4/5=5,16=3,69=1/1;
 5/5=2,38=5/2;
 7//1,2,3,16;
 1/18=20,19=15,26=3/3(-5);
 2/9=110/2;
 6/7=2,8=2,9=2,10=2,19=2,28=1/1;
 99/9=1/99;
 Leave Link    1 at Fri Apr 26 11:48:35 2024, MaxMem= 34359738368 cpu:               1.1 elap:               0.0
 (Enter /apps/gaussian/g16-c01-avx2/g16/l101.exe)
 ----------------------------------------------------------------------
 Investigation of Azulene step 1: ground state optimization and frequen
 cy calculation.
 ----------------------------------------------------------------------
 Symbolic Z-matrix:
 Charge =  0 Multiplicity = 1
 C                    -1.58497   0.6383   -0.02075 
 C                    -0.22424   0.6383   -0.02075 
 C                     0.66448   1.74038  -0.02075 
 C                    -2.48977   1.72722  -0.01994 
 C                     0.35715   3.06166  -0.02048 
 C                    -2.22894   3.06186  -0.01906 
 C                    -0.97676   3.71267  -0.01939 
 H                    -2.07565  -0.35732  -0.02133 
 H                     0.27378  -0.35184  -0.02109 
 H                     1.74174   1.475    -0.02116 
 H                    -3.55811   1.4315   -0.01984 
 H                    -3.10188   3.74703  -0.01817 
 C                     1.32864   4.14823  -0.02082 
 H                     2.40548   3.99499  -0.02181 
 C                     0.64868   5.34989  -0.01983 
 H                     1.08552   6.34769  -0.01977 
 C                    -0.77224   5.0894   -0.01894 
 H                    -1.54128   5.85866  -0.018 
 
 ITRead=  0  0  0  0  0  0  0  0  0  0  0  0  0  0  0  0  0  0
 MicOpt= -1 -1 -1 -1 -1 -1 -1 -1 -1 -1 -1 -1 -1 -1 -1 -1 -1 -1
 NAtoms=     18 NQM=       18 NQMF=       0 NMMI=      0 NMMIF=      0
                NMic=       0 NMicF=      0.
                    Isotopes and Nuclear Properties:
 (Nuclear quadrupole moments (NQMom) in fm**2, nuclear magnetic moments (NMagM)
  in nuclear magnetons)

  Atom         1           2           3           4           5           6           7           8           9          10
 IAtWgt=          12          12          12          12          12          12          12           1           1           1
 AtmWgt=  12.0000000  12.0000000  12.0000000  12.0000000  12.0000000  12.0000000  12.0000000   1.0078250   1.0078250   1.0078250
 NucSpn=           0           0           0           0           0           0           0           1           1           1
 AtZEff=  -0.0000000  -0.0000000  -0.0000000  -0.0000000  -0.0000000  -0.0000000  -0.0000000  -0.0000000  -0.0000000  -0.0000000
 NQMom=    0.0000000   0.0000000   0.0000000   0.0000000   0.0000000   0.0000000   0.0000000   0.0000000   0.0000000   0.0000000
 NMagM=    0.0000000   0.0000000   0.0000000   0.0000000   0.0000000   0.0000000   0.0000000   2.7928460   2.7928460   2.7928460
 AtZNuc=   6.0000000   6.0000000   6.0000000   6.0000000   6.0000000   6.0000000   6.0000000   1.0000000   1.0000000   1.0000000

  Atom        11          12          13          14          15          16          17          18
 IAtWgt=           1           1          12           1          12           1          12           1
 AtmWgt=   1.0078250   1.0078250  12.0000000   1.0078250  12.0000000   1.0078250  12.0000000   1.0078250
 NucSpn=           1           1           0           1           0           1           0           1
 AtZEff=  -0.0000000  -0.0000000  -0.0000000  -0.0000000  -0.0000000  -0.0000000  -0.0000000  -0.0000000
 NQMom=    0.0000000   0.0000000   0.0000000   0.0000000   0.0000000   0.0000000   0.0000000   0.0000000
 NMagM=    2.7928460   2.7928460   0.0000000   2.7928460   0.0000000   2.7928460   0.0000000   2.7928460
 AtZNuc=   1.0000000   1.0000000   6.0000000   1.0000000   6.0000000   1.0000000   6.0000000   1.0000000
 Leave Link  101 at Fri Apr 26 11:48:35 2024, MaxMem= 34359738368 cpu:               7.3 elap:               0.2
 (Enter /apps/gaussian/g16-c01-avx2/g16/l103.exe)

 GradGradGradGradGradGradGradGradGradGradGradGradGradGradGradGradGradGrad
 Berny optimization.
 Initialization pass.
                           ----------------------------
                           !    Initial Parameters    !
                           ! (Angstroms and Degrees)  !
 --------------------------                            --------------------------
 ! Name  Definition              Value          Derivative Info.                !
 --------------------------------------------------------------------------------
 ! R1    R(1,2)                  1.3607         estimate D2E/DX2                !
 ! R2    R(1,4)                  1.4158         estimate D2E/DX2                !
 ! R3    R(1,8)                  1.11           estimate D2E/DX2                !
 ! R4    R(2,3)                  1.4158         estimate D2E/DX2                !
 ! R5    R(2,9)                  1.1083         estimate D2E/DX2                !
 ! R6    R(3,5)                  1.3565         estimate D2E/DX2                !
 ! R7    R(3,10)                 1.1095         estimate D2E/DX2                !
 ! R8    R(4,6)                  1.3599         estimate D2E/DX2                !
 ! R9    R(4,11)                 1.1085         estimate D2E/DX2                !
 ! R10   R(5,7)                  1.4843         estimate D2E/DX2                !
 ! R11   R(5,13)                 1.4575         estimate D2E/DX2                !
 ! R12   R(6,7)                  1.4112         estimate D2E/DX2                !
 ! R13   R(6,12)                 1.1097         estimate D2E/DX2                !
 ! R14   R(7,17)                 1.3918         estimate D2E/DX2                !
 ! R15   R(13,14)                1.0877         estimate D2E/DX2                !
 ! R16   R(13,15)                1.3807         estimate D2E/DX2                !
 ! R17   R(15,16)                1.0892         estimate D2E/DX2                !
 ! R18   R(15,17)                1.4446         estimate D2E/DX2                !
 ! R19   R(17,18)                1.0877         estimate D2E/DX2                !
 ! A1    A(2,1,4)              129.7237         estimate D2E/DX2                !
 ! A2    A(2,1,8)              116.2359         estimate D2E/DX2                !
 ! A3    A(4,1,8)              114.0405         estimate D2E/DX2                !
 ! A4    A(1,2,3)              128.8828         estimate D2E/DX2                !
 ! A5    A(1,2,9)              116.7012         estimate D2E/DX2                !
 ! A6    A(3,2,9)              114.416          estimate D2E/DX2                !
 ! A7    A(2,3,5)              128.0227         estimate D2E/DX2                !
 ! A8    A(2,3,10)             115.0433         estimate D2E/DX2                !
 ! A9    A(5,3,10)             116.934          estimate D2E/DX2                !
 ! A10   A(1,4,6)              129.2184         estimate D2E/DX2                !
 ! A11   A(1,4,11)             114.2518         estimate D2E/DX2                !
 ! A12   A(6,4,11)             116.5297         estimate D2E/DX2                !
 ! A13   A(3,5,7)              129.1091         estimate D2E/DX2                !
 ! A14   A(3,5,13)             125.1058         estimate D2E/DX2                !
 ! A15   A(7,5,13)             105.7851         estimate D2E/DX2                !
 ! A16   A(4,6,7)              128.5204         estimate D2E/DX2                !
 ! A17   A(4,6,12)             117.0702         estimate D2E/DX2                !
 ! A18   A(7,6,12)             114.4094         estimate D2E/DX2                !
 ! A19   A(5,7,6)              126.5229         estimate D2E/DX2                !
 ! A20   A(5,7,17)             107.5648         estimate D2E/DX2                !
 ! A21   A(6,7,17)             125.9123         estimate D2E/DX2                !
 ! A22   A(5,13,14)            123.7007         estimate D2E/DX2                !
 ! A23   A(5,13,15)            108.6969         estimate D2E/DX2                !
 ! A24   A(14,13,15)           127.6024         estimate D2E/DX2                !
 ! A25   A(13,15,16)           126.8525         estimate D2E/DX2                !
 ! A26   A(13,15,17)           109.115          estimate D2E/DX2                !
 ! A27   A(16,15,17)           124.0325         estimate D2E/DX2                !
 ! A28   A(7,17,15)            108.8383         estimate D2E/DX2                !
 ! A29   A(7,17,18)            126.5577         estimate D2E/DX2                !
 ! A30   A(15,17,18)           124.604          estimate D2E/DX2                !
 ! D1    D(4,1,2,3)             -0.0424         estimate D2E/DX2                !
 ! D2    D(4,1,2,9)            179.9772         estimate D2E/DX2                !
 ! D3    D(8,1,2,3)            179.9667         estimate D2E/DX2                !
 ! D4    D(8,1,2,9)             -0.0138         estimate D2E/DX2                !
 ! D5    D(2,1,4,6)              0.0054         estimate D2E/DX2                !
 ! D6    D(2,1,4,11)          -179.9819         estimate D2E/DX2                !
 ! D7    D(8,1,4,6)            179.9965         estimate D2E/DX2                !
 ! D8    D(8,1,4,11)             0.0092         estimate D2E/DX2                !
 ! D9    D(1,2,3,5)              0.0145         estimate D2E/DX2                !
 ! D10   D(1,2,3,10)          -179.9765         estimate D2E/DX2                !
 ! D11   D(9,2,3,5)            179.9953         estimate D2E/DX2                !
 ! D12   D(9,2,3,10)             0.0044         estimate D2E/DX2                !
 ! D13   D(2,3,5,7)              0.036          estimate D2E/DX2                !
 ! D14   D(2,3,5,13)          -179.9847         estimate D2E/DX2                !
 ! D15   D(10,3,5,7)          -179.9732         estimate D2E/DX2                !
 ! D16   D(10,3,5,13)            0.0061         estimate D2E/DX2                !
 ! D17   D(1,4,6,7)              0.0355         estimate D2E/DX2                !
 ! D18   D(1,4,6,12)          -179.9796         estimate D2E/DX2                !
 ! D19   D(11,4,6,7)          -179.9775         estimate D2E/DX2                !
 ! D20   D(11,4,6,12)            0.0074         estimate D2E/DX2                !
 ! D21   D(3,5,7,6)             -0.0338         estimate D2E/DX2                !
 ! D22   D(3,5,7,17)           179.9743         estimate D2E/DX2                !
 ! D23   D(13,5,7,6)           179.9838         estimate D2E/DX2                !
 ! D24   D(13,5,7,17)           -0.0082         estimate D2E/DX2                !
 ! D25   D(3,5,13,14)            0.0309         estimate D2E/DX2                !
 ! D26   D(3,5,13,15)         -179.9755         estimate D2E/DX2                !
 ! D27   D(7,5,13,14)         -179.9858         estimate D2E/DX2                !
 ! D28   D(7,5,13,15)            0.0078         estimate D2E/DX2                !
 ! D29   D(4,6,7,5)             -0.0162         estimate D2E/DX2                !
 ! D30   D(4,6,7,17)           179.9742         estimate D2E/DX2                !
 ! D31   D(12,6,7,5)           179.9985         estimate D2E/DX2                !
 ! D32   D(12,6,7,17)           -0.011          estimate D2E/DX2                !
 ! D33   D(5,7,17,15)            0.0056         estimate D2E/DX2                !
 ! D34   D(5,7,17,18)         -179.9909         estimate D2E/DX2                !
 ! D35   D(6,7,17,15)         -179.9864         estimate D2E/DX2                !
 ! D36   D(6,7,17,18)            0.0171         estimate D2E/DX2                !
 ! D37   D(5,13,15,16)         179.9991         estimate D2E/DX2                !
 ! D38   D(5,13,15,17)          -0.0046         estimate D2E/DX2                !
 ! D39   D(14,13,15,16)         -0.0075         estimate D2E/DX2                !
 ! D40   D(14,13,15,17)        179.9887         estimate D2E/DX2                !
 ! D41   D(13,15,17,7)          -0.0007         estimate D2E/DX2                !
 ! D42   D(13,15,17,18)        179.9959         estimate D2E/DX2                !
 ! D43   D(16,15,17,7)         179.9957         estimate D2E/DX2                !
 ! D44   D(16,15,17,18)         -0.0077         estimate D2E/DX2                !
 --------------------------------------------------------------------------------
 Trust Radius=3.00D-01 FncErr=1.00D-07 GrdErr=1.00D-06 EigMax=2.50D+02 EigMin=1.00D-04
 Number of steps in this run=    103 maximum allowed number of steps=    108.
 GradGradGradGradGradGradGradGradGradGradGradGradGradGradGradGradGradGrad

 Leave Link  103 at Fri Apr 26 11:48:36 2024, MaxMem= 34359738368 cpu:               0.9 elap:               0.0
 (Enter /apps/gaussian/g16-c01-avx2/g16/l202.exe)
                          Input orientation:                          
 ---------------------------------------------------------------------
 Center     Atomic      Atomic             Coordinates (Angstroms)
 Number     Number       Type             X           Y           Z
 ---------------------------------------------------------------------
      1          6           0       -1.584971    0.638298   -0.020748
      2          6           0       -0.224241    0.638298   -0.020748
      3          6           0        0.664484    1.740385   -0.020748
      4          6           0       -2.489770    1.727218   -0.019943
      5          6           0        0.357148    3.061658   -0.020478
      6          6           0       -2.228941    3.061865   -0.019055
      7          6           0       -0.976758    3.712669   -0.019388
      8          1           0       -2.075649   -0.357317   -0.021327
      9          1           0        0.273775   -0.351843   -0.021086
     10          1           0        1.741744    1.474997   -0.021161
     11          1           0       -3.558115    1.431505   -0.019842
     12          1           0       -3.101879    3.747028   -0.018174
     13          6           0        1.328641    4.148226   -0.020816
     14          1           0        2.405477    3.994990   -0.021811
     15          6           0        0.648675    5.349895   -0.019828
     16          1           0        1.085516    6.347691   -0.019772
     17          6           0       -0.772236    5.089405   -0.018935
     18          1           0       -1.541284    5.858656   -0.018003
 ---------------------------------------------------------------------
                    Distance matrix (angstroms):
                    1          2          3          4          5
     1  C    0.000000
     2  C    1.360730   0.000000
     3  C    2.504924   1.415778   0.000000
     4  C    1.415771   2.513637   3.154282   0.000000
     5  C    3.105560   2.492125   1.356546   3.144149   0.000000
     6  C    2.507664   3.145235   3.180915   1.359895   2.586089
     7  C    3.133956   3.165129   2.565849   2.496241   1.484292
     8  H    1.109961   2.102133   3.450896   2.125273   4.196176
     9  H    2.106019   1.108332   2.128396   3.458277   3.414519
    10  H    3.430320   2.136624   1.109468   4.239024   2.105849
    11  H    2.126611   3.426937   4.233881   1.108516   4.241071
    12  H    3.459078   4.236155   4.267565   2.110524   3.526274
    13  C    4.561659   3.838103   2.497760   4.521232   1.457542
    14  H    5.214505   4.264129   2.848561   5.395020   2.250947
    15  C    5.214242   4.791777   3.609545   4.793081   2.306733
    16  H    6.303068   5.857699   4.626504   5.842212   3.365789
    17  C    4.524698   4.484714   3.644188   3.775477   2.321049
    18  H    5.220542   5.383934   4.671785   4.238916   3.380421
                    6          7          8          9         10
     6  C    0.000000
     7  C    1.411208   0.000000
     8  H    3.422617   4.215727   0.000000
     9  H    4.232847   4.252540   2.349430   0.000000
    10  H    4.276037   3.520999   4.234367   2.343561   0.000000
    11  H    2.103516   3.444868   2.323272   4.226549   5.300038
    12  H    1.109716   2.125399   4.230698   5.309971   5.350030
    13  C    3.719754   2.346183   5.647044   4.622052   2.704960
    14  H    4.727426   3.393998   6.246845   4.841396   2.605937
    15  C    3.676378   2.307063   6.324098   5.714050   4.026119
    16  H    4.667149   3.346090   7.412833   6.748532   4.916684
    17  C    2.496579   1.391845   5.600506   5.540877   4.402732
    18  H    2.880089   2.218998   6.238900   6.470297   5.476746
                   11         12         13         14         15
    11  H    0.000000
    12  H    2.360043   0.000000
    13  C    5.591150   4.448649   0.000000
    14  H    6.491216   5.512936   1.087685   0.000000
    15  C    5.748988   4.078706   1.380711   2.218586   0.000000
    16  H    6.762558   4.929273   2.212862   2.697685   1.089232
    17  C    4.597973   2.688720   2.302066   3.360895   1.444591
    18  H    4.864903   2.625725   3.340965   4.364652   2.248280
                   16         17         18
    16  H    0.000000
    17  C    2.243775   0.000000
    18  H    2.671935   1.087742   0.000000
 Stoichiometry    C10H8
 Framework group  C1[X(C10H8)]
 Deg. of freedom    48
 Full point group                 C1      NOp   1
 Largest Abelian subgroup         C1      NOp   1
 Largest concise Abelian subgroup C1      NOp   1
                         Standard orientation:                         
 ---------------------------------------------------------------------
 Center     Atomic      Atomic             Coordinates (Angstroms)
 Number     Number       Type             X           Y           Z
 ---------------------------------------------------------------------
      1          6           0        2.492270   -0.037614    0.000299
      2          6           0        1.900978   -1.263159   -0.000313
      3          6           0        0.522194   -1.584690   -0.000302
      4          6           0        1.904703    1.250475    0.000307
      5          6           0       -0.534264   -0.733741    0.000059
      6          6           0        0.589309    1.595517   -0.000201
      7          6           0       -0.540963    0.750536   -0.000188
      8          1           0        3.602193   -0.028319    0.000728
      9          1           0        2.576343   -2.141954   -0.000568
     10          1           0        0.293104   -2.670249   -0.000472
     11          1           0        2.635277    2.084183    0.000576
     12          1           0        0.351542    2.679462   -0.000434
     13          6           0       -1.935037   -1.136561    0.000365
     14          1           0       -2.264953   -2.173004    0.000819
     15          6           0       -2.721850   -0.001974    0.000131
     16          1           0       -3.810342    0.038167    0.000250
     17          6           0       -1.869796    1.164580   -0.000220
     18          1           0       -2.228442    2.191496   -0.000520
 ---------------------------------------------------------------------
 Rotational constants (GHZ):           2.8611931           1.2528776           0.8713328
 Leave Link  202 at Fri Apr 26 11:48:37 2024, MaxMem= 34359738368 cpu:               1.3 elap:               0.1
 (Enter /apps/gaussian/g16-c01-avx2/g16/l301.exe)
 Standard basis: 6-31(d') (6D, 7F)
 Ernie: Thresh=  0.10000D-02 Tol=  0.10000D-05 Strict=F.
 There are   166 symmetry adapted cartesian basis functions of A   symmetry.
 There are   166 symmetry adapted basis functions of A   symmetry.
   166 basis functions,   312 primitive gaussians,   166 cartesian basis functions
    34 alpha electrons       34 beta electrons
       nuclear repulsion energy       453.5602689767 Hartrees.
 IExCor=20419 DFT=T Ex+Corr=CAM-B3LYP ExCW=0 ScaHFX=  1.000000
 ScaDFX=  1.000000  1.000000  1.000000  0.810000 ScalE2=  1.000000  1.000000
 IRadAn=      5 IRanWt=     -1 IRanGd=            0 ICorTp=0 IEmpDi=  4
 HFx  wShort=  0.000000 wLong=  0.330000 cFull=  0.190000 cShort=  0.000000 cLong=  0.460000
 DFx  wShort=  0.000000 wLong=  0.330000 cFull=  0.190000 cShort=  0.000000 cLong=  0.460000
 NAtoms=   18 NActive=   18 NUniq=   18 SFac= 1.00D+00 NAtFMM=   60 NAOKFM=F Big=F
 Integral buffers will be    131072 words long.
 Raffenetti 2 integral format.
 Two-electron integral symmetry is turned on.
 Leave Link  301 at Fri Apr 26 11:48:37 2024, MaxMem= 34359738368 cpu:               1.8 elap:               0.2
 (Enter /apps/gaussian/g16-c01-avx2/g16/l302.exe)
 NPDir=0 NMtPBC=     1 NCelOv=     1 NCel=       1 NClECP=     1 NCelD=      1
         NCelK=      1 NCelE2=     1 NClLst=     1 CellRange=     0.0.
 One-electron integrals computed using PRISM.
 One-electron integral symmetry used in STVInt
 NBasis=   166 RedAO= T EigKep=  5.85D-04  NBF=   166
 NBsUse=   166 1.00D-06 EigRej= -1.00D+00 NBFU=   166
 Precomputing XC quadrature grid using
 IXCGrd= 4 IRadAn=           5 IRanWt=          -1 IRanGd=           0 AccXCQ= 0.00D+00.
 Generated NRdTot=       0 NPtTot=           0 NUsed=           0 NTot=          32
 NSgBfM=   166   166   166   166   166 MxSgAt=    18 MxSgA2=    18.
 Leave Link  302 at Fri Apr 26 11:48:38 2024, MaxMem= 34359738368 cpu:               6.3 elap:               0.2
 (Enter /apps/gaussian/g16-c01-avx2/g16/l303.exe)
 DipDrv:  MaxL=1.
 Leave Link  303 at Fri Apr 26 11:48:39 2024, MaxMem= 34359738368 cpu:               2.8 elap:               0.2
 (Enter /apps/gaussian/g16-c01-avx2/g16/l401.exe)
 ExpMin= 1.61D-01 ExpMax= 3.05D+03 ExpMxC= 4.57D+02 IAcc=3 IRadAn=         5 AccDes= 0.00D+00
 Harris functional with IExCor=20419 and IRadAn=       5 diagonalized for initial guess.
 HarFok:  IExCor=20419 AccDes= 0.00D+00 IRadAn=         5 IDoV= 1 UseB2=F ITyADJ=14
 ICtDFT=  3500011 ScaDFX=  1.000000  1.000000  1.000000  1.000000
 FoFCou: FMM=F IPFlag=           0 FMFlag=      100000 FMFlg1=           0
         NFxFlg=           0 DoJE=T BraDBF=F KetDBF=T FulRan=T
         wScrn=  0.000000 ICntrl=       500 IOpCl=  0 I1Cent=   200000004 NGrid=           0
         NMat0=    1 NMatS0=      1 NMatT0=    0 NMatD0=    1 NMtDS0=    0 NMtDT0=    0
 Petite list used in FoFCou.
 Harris En= -369.757672436208    
 JPrj=0 DoOrth=F DoCkMO=F.
 Leave Link  401 at Fri Apr 26 11:48:40 2024, MaxMem= 34359738368 cpu:              15.1 elap:               0.5
 (Enter /apps/gaussian/g16-c01-avx2/g16/l502.exe)
 Integral symmetry usage will be decided dynamically.
 Closed shell SCF:
 Using DIIS extrapolation, IDIIS=  1040.
 NGot= 34359738368 LenX= 34359675624 LenY= 34359647627
 Requested convergence on RMS density matrix=1.00D-08 within 128 cycles.
 Requested convergence on MAX density matrix=1.00D-06.
 Requested convergence on             energy=1.00D-06.
 No special actions if energy rises.
 Fock matrices will be formed incrementally for  20 cycles.
 Integral accuracy reduced to 1.0D-05 until final iterations.

 Cycle   1  Pass 0  IDiag  1:
 FoFJK:  IHMeth= 1 ICntrl=       0 DoSepK=T KAlg= 0 I1Cent=           0 FoldK=F
 IRaf=         1 NMat=       1 IRICut=       1 DoRegI=T DoRafI=F ISym2E= 0 IDoP0=0 IntGTp=1.
 FoFCou: FMM=F IPFlag=           0 FMFlag=      100000 FMFlg1=           0
         NFxFlg=           0 DoJE=T BraDBF=F KetDBF=F FulRan=T
         wScrn=  0.000000 ICntrl=       500 IOpCl=  0 I1Cent=           0 NGrid=           0
         NMat0=    1 NMatS0=      1 NMatT0=    0 NMatD0=    1 NMtDS0=    0 NMtDT0=    0
 Symmetry not used in FoFCou.
 E= -385.518237039849    
 DIIS: error= 4.84D-02 at cycle   1 NSaved=   1.
 NSaved= 1 IEnMin= 1 EnMin= -385.518237039849     IErMin= 1 ErrMin= 4.84D-02
 ErrMax= 4.84D-02  0.00D+00 EMaxC= 1.00D-01 BMatC= 2.35D-01 BMatP= 2.35D-01
 IDIUse=3 WtCom= 5.16D-01 WtEn= 4.84D-01
 Coeff-Com:  0.100D+01
 Coeff-En:   0.100D+01
 Coeff:      0.100D+01
 Gap=     0.191 Goal=   None    Shift=    0.000
 GapD=    0.191 DampG=1.000 DampE=0.500 DampFc=0.5000 IDamp=-1.
 Damping current iteration by 5.00D-01
 RMSDP=3.10D-03 MaxDP=6.02D-02              OVMax= 8.67D-02

 Cycle   2  Pass 0  IDiag  1:
 RMSU=  1.54D-03    CP:  9.93D-01
 E= -385.553057355186     Delta-E=       -0.034820315337 Rises=F Damp=T
 DIIS: error= 2.47D-02 at cycle   2 NSaved=   2.
 NSaved= 2 IEnMin= 2 EnMin= -385.553057355186     IErMin= 2 ErrMin= 2.47D-02
 ErrMax= 2.47D-02  0.00D+00 EMaxC= 1.00D-01 BMatC= 5.51D-02 BMatP= 2.35D-01
 IDIUse=3 WtCom= 7.53D-01 WtEn= 2.47D-01
 Coeff-Com: -0.745D+00 0.175D+01
 Coeff-En:   0.000D+00 0.100D+01
 Coeff:     -0.561D+00 0.156D+01
 Gap=     0.225 Goal=   None    Shift=    0.000
 RMSDP=1.85D-03 MaxDP=2.87D-02 DE=-3.48D-02 OVMax= 8.35D-02

 Cycle   3  Pass 0  IDiag  1:
 RMSU=  1.56D-03    CP:  9.81D-01  1.61D+00
 E= -385.577155516690     Delta-E=       -0.024098161504 Rises=F Damp=F
 DIIS: error= 8.83D-03 at cycle   3 NSaved=   3.
 NSaved= 3 IEnMin= 3 EnMin= -385.577155516690     IErMin= 3 ErrMin= 8.83D-03
 ErrMax= 8.83D-03  0.00D+00 EMaxC= 1.00D-01 BMatC= 9.51D-03 BMatP= 5.51D-02
 IDIUse=3 WtCom= 9.12D-01 WtEn= 8.83D-02
 Coeff-Com: -0.392D+00 0.811D+00 0.580D+00
 Coeff-En:   0.000D+00 0.000D+00 0.100D+01
 Coeff:     -0.357D+00 0.740D+00 0.617D+00
 Gap=     0.208 Goal=   None    Shift=    0.000
 RMSDP=7.87D-04 MaxDP=2.08D-02 DE=-2.41D-02 OVMax= 5.87D-02

 Cycle   4  Pass 0  IDiag  1:
 RMSU=  4.62D-04    CP:  9.80D-01  1.81D+00  6.46D-01
 E= -385.586143845394     Delta-E=       -0.008988328705 Rises=F Damp=F
 DIIS: error= 4.28D-03 at cycle   4 NSaved=   4.
 NSaved= 4 IEnMin= 4 EnMin= -385.586143845394     IErMin= 4 ErrMin= 4.28D-03
 ErrMax= 4.28D-03  0.00D+00 EMaxC= 1.00D-01 BMatC= 1.44D-03 BMatP= 9.51D-03
 IDIUse=3 WtCom= 9.57D-01 WtEn= 4.28D-02
 Coeff-Com: -0.176D+00 0.359D+00 0.360D+00 0.457D+00
 Coeff-En:   0.000D+00 0.000D+00 0.101D+00 0.899D+00
 Coeff:     -0.169D+00 0.344D+00 0.349D+00 0.476D+00
 Gap=     0.211 Goal=   None    Shift=    0.000
 RMSDP=2.58D-04 MaxDP=4.62D-03 DE=-8.99D-03 OVMax= 1.84D-02

 Cycle   5  Pass 0  IDiag  1:
 RMSU=  9.76D-05    CP:  9.80D-01  1.78D+00  7.25D-01  5.67D-01
 E= -385.587808414914     Delta-E=       -0.001664569520 Rises=F Damp=F
 DIIS: error= 3.45D-04 at cycle   5 NSaved=   5.
 NSaved= 5 IEnMin= 5 EnMin= -385.587808414914     IErMin= 5 ErrMin= 3.45D-04
 ErrMax= 3.45D-04  0.00D+00 EMaxC= 1.00D-01 BMatC= 1.24D-05 BMatP= 1.44D-03
 IDIUse=3 WtCom= 9.97D-01 WtEn= 3.45D-03
 Coeff-Com: -0.150D-01 0.301D-01 0.322D-01 0.103D+00 0.850D+00
 Coeff-En:   0.000D+00 0.000D+00 0.000D+00 0.000D+00 0.100D+01
 Coeff:     -0.150D-01 0.300D-01 0.321D-01 0.103D+00 0.850D+00
 Gap=     0.211 Goal=   None    Shift=    0.000
 RMSDP=3.88D-05 MaxDP=6.59D-04 DE=-1.66D-03 OVMax= 3.36D-03

 Cycle   6  Pass 0  IDiag  1:
 RMSU=  2.65D-05    CP:  9.80D-01  1.79D+00  7.25D-01  6.22D-01  1.05D+00
 E= -385.587832784678     Delta-E=       -0.000024369763 Rises=F Damp=F
 DIIS: error= 1.95D-04 at cycle   6 NSaved=   6.
 NSaved= 6 IEnMin= 6 EnMin= -385.587832784678     IErMin= 6 ErrMin= 1.95D-04
 ErrMax= 1.95D-04  0.00D+00 EMaxC= 1.00D-01 BMatC= 2.71D-06 BMatP= 1.24D-05
 IDIUse=3 WtCom= 9.98D-01 WtEn= 1.95D-03
 Coeff-Com:  0.188D-01-0.387D-01-0.380D-01-0.215D-01 0.395D+00 0.685D+00
 Coeff-En:   0.000D+00 0.000D+00 0.000D+00 0.000D+00 0.000D+00 0.100D+01
 Coeff:      0.188D-01-0.387D-01-0.379D-01-0.215D-01 0.394D+00 0.685D+00
 Gap=     0.211 Goal=   None    Shift=    0.000
 RMSDP=1.97D-05 MaxDP=3.13D-04 DE=-2.44D-05 OVMax= 2.19D-03

 Cycle   7  Pass 0  IDiag  1:
 RMSU=  1.52D-05    CP:  9.79D-01  1.79D+00  7.29D-01  6.29D-01  1.15D+00
                    CP:  1.12D+00
 E= -385.587840307309     Delta-E=       -0.000007522631 Rises=F Damp=F
 DIIS: error= 1.09D-04 at cycle   7 NSaved=   7.
 NSaved= 7 IEnMin= 7 EnMin= -385.587840307309     IErMin= 7 ErrMin= 1.09D-04
 ErrMax= 1.09D-04  0.00D+00 EMaxC= 1.00D-01 BMatC= 3.86D-07 BMatP= 2.71D-06
 IDIUse=3 WtCom= 9.99D-01 WtEn= 1.09D-03
 Coeff-Com:  0.535D-02-0.109D-01-0.104D-01-0.222D-01-0.868D-01 0.141D+00
 Coeff-Com:  0.984D+00
 Coeff-En:   0.000D+00 0.000D+00 0.000D+00 0.000D+00 0.000D+00 0.000D+00
 Coeff-En:   0.100D+01
 Coeff:      0.534D-02-0.109D-01-0.104D-01-0.222D-01-0.867D-01 0.141D+00
 Coeff:      0.984D+00
 Gap=     0.211 Goal=   None    Shift=    0.000
 RMSDP=1.38D-05 MaxDP=2.70D-04 DE=-7.52D-06 OVMax= 1.79D-03

 Cycle   8  Pass 0  IDiag  1:
 RMSU=  5.13D-06    CP:  9.79D-01  1.79D+00  7.30D-01  6.31D-01  1.20D+00
                    CP:  1.50D+00  1.42D+00
 E= -385.587843344717     Delta-E=       -0.000003037408 Rises=F Damp=F
 DIIS: error= 6.99D-05 at cycle   8 NSaved=   8.
 NSaved= 8 IEnMin= 8 EnMin= -385.587843344717     IErMin= 8 ErrMin= 6.99D-05
 ErrMax= 6.99D-05  0.00D+00 EMaxC= 1.00D-01 BMatC= 1.12D-07 BMatP= 3.86D-07
 IDIUse=1 WtCom= 1.00D+00 WtEn= 0.00D+00
 Coeff-Com: -0.476D-02 0.982D-02 0.983D-02-0.124D-03-0.157D+00-0.153D+00
 Coeff-Com:  0.257D+00 0.104D+01
 Coeff:     -0.476D-02 0.982D-02 0.983D-02-0.124D-03-0.157D+00-0.153D+00
 Coeff:      0.257D+00 0.104D+01
 Gap=     0.211 Goal=   None    Shift=    0.000
 RMSDP=1.07D-05 MaxDP=1.95D-04 DE=-3.04D-06 OVMax= 1.51D-03

 Cycle   9  Pass 0  IDiag  1:
 RMSU=  2.73D-06    CP:  9.79D-01  1.79D+00  7.30D-01  6.32D-01  1.23D+00
                    CP:  1.75D+00  1.88D+00  1.32D+00
 E= -385.587844494849     Delta-E=       -0.000001150132 Rises=F Damp=F
 DIIS: error= 2.01D-05 at cycle   9 NSaved=   9.
 NSaved= 9 IEnMin= 9 EnMin= -385.587844494849     IErMin= 9 ErrMin= 2.01D-05
 ErrMax= 2.01D-05  0.00D+00 EMaxC= 1.00D-01 BMatC= 3.35D-08 BMatP= 1.12D-07
 IDIUse=1 WtCom= 1.00D+00 WtEn= 0.00D+00
 Coeff-Com: -0.403D-02 0.828D-02 0.808D-02 0.612D-02-0.576D-01-0.107D+00
 Coeff-Com: -0.173D+00 0.497D+00 0.822D+00
 Coeff:     -0.403D-02 0.828D-02 0.808D-02 0.612D-02-0.576D-01-0.107D+00
 Coeff:     -0.173D+00 0.497D+00 0.822D+00
 Gap=     0.211 Goal=   None    Shift=    0.000
 RMSDP=5.23D-06 MaxDP=9.42D-05 DE=-1.15D-06 OVMax= 6.98D-04

 Initial convergence to 1.0D-05 achieved.  Increase integral accuracy.
 Cycle  10  Pass 1  IDiag  1:
 E= -385.587863288839     Delta-E=       -0.000018793990 Rises=F Damp=F
 DIIS: error= 1.51D-05 at cycle   1 NSaved=   1.
 NSaved= 1 IEnMin= 1 EnMin= -385.587863288839     IErMin= 1 ErrMin= 1.51D-05
 ErrMax= 1.51D-05  0.00D+00 EMaxC= 1.00D-01 BMatC= 1.68D-08 BMatP= 1.68D-08
 IDIUse=1 WtCom= 1.00D+00 WtEn= 0.00D+00
 Coeff-Com:  0.100D+01
 Coeff:      0.100D+01
 Gap=     0.211 Goal=   None    Shift=    0.000
 RMSDP=5.23D-06 MaxDP=9.42D-05 DE=-1.88D-05 OVMax= 6.07D-05

 Cycle  11  Pass 1  IDiag  1:
 RMSU=  6.14D-06    CP:  1.00D+00
 E= -385.587863303874     Delta-E=       -0.000000015035 Rises=F Damp=F
 DIIS: error= 3.07D-06 at cycle   2 NSaved=   2.
 NSaved= 2 IEnMin= 2 EnMin= -385.587863303874     IErMin= 2 ErrMin= 3.07D-06
 ErrMax= 3.07D-06  0.00D+00 EMaxC= 1.00D-01 BMatC= 1.82D-09 BMatP= 1.68D-08
 IDIUse=1 WtCom= 1.00D+00 WtEn= 0.00D+00
 Coeff-Com:  0.113D+00 0.887D+00
 Coeff:      0.113D+00 0.887D+00
 Gap=     0.211 Goal=   None    Shift=    0.000
 RMSDP=6.23D-07 MaxDP=1.16D-05 DE=-1.50D-08 OVMax= 3.31D-05

 Cycle  12  Pass 1  IDiag  1:
 RMSU=  5.69D-07    CP:  1.00D+00  1.04D+00
 E= -385.587863304722     Delta-E=       -0.000000000849 Rises=F Damp=F
 DIIS: error= 3.39D-06 at cycle   3 NSaved=   3.
 NSaved= 3 IEnMin= 3 EnMin= -385.587863304722     IErMin= 2 ErrMin= 3.07D-06
 ErrMax= 3.39D-06  0.00D+00 EMaxC= 1.00D-01 BMatC= 1.75D-09 BMatP= 1.82D-09
 IDIUse=1 WtCom= 1.00D+00 WtEn= 0.00D+00
 Coeff-Com: -0.297D-01 0.502D+00 0.528D+00
 Coeff:     -0.297D-01 0.502D+00 0.528D+00
 Gap=     0.211 Goal=   None    Shift=    0.000
 RMSDP=2.70D-07 MaxDP=7.22D-06 DE=-8.49D-10 OVMax= 2.07D-05

 Cycle  13  Pass 1  IDiag  1:
 RMSU=  1.78D-07    CP:  1.00D+00  1.05D+00  6.62D-01
 E= -385.587863306692     Delta-E=       -0.000000001970 Rises=F Damp=F
 DIIS: error= 9.92D-07 at cycle   4 NSaved=   4.
 NSaved= 4 IEnMin= 4 EnMin= -385.587863306692     IErMin= 4 ErrMin= 9.92D-07
 ErrMax= 9.92D-07  0.00D+00 EMaxC= 1.00D-01 BMatC= 3.33D-11 BMatP= 1.75D-09
 IDIUse=1 WtCom= 1.00D+00 WtEn= 0.00D+00
 Coeff-Com: -0.844D-02 0.371D-01 0.766D-01 0.895D+00
 Coeff:     -0.844D-02 0.371D-01 0.766D-01 0.895D+00
 Gap=     0.211 Goal=   None    Shift=    0.000
 RMSDP=1.04D-07 MaxDP=1.68D-06 DE=-1.97D-09 OVMax= 1.34D-05

 Cycle  14  Pass 1  IDiag  1:
 RMSU=  6.32D-08    CP:  1.00D+00  1.05D+00  7.42D-01  1.38D+00
 E= -385.587863306882     Delta-E=       -0.000000000190 Rises=F Damp=F
 DIIS: error= 7.98D-07 at cycle   5 NSaved=   5.
 NSaved= 5 IEnMin= 5 EnMin= -385.587863306882     IErMin= 5 ErrMin= 7.98D-07
 ErrMax= 7.98D-07  0.00D+00 EMaxC= 1.00D-01 BMatC= 1.67D-11 BMatP= 3.33D-11
 IDIUse=1 WtCom= 1.00D+00 WtEn= 0.00D+00
 Coeff-Com:  0.875D-02-0.198D+00-0.182D+00 0.477D+00 0.895D+00
 Coeff:      0.875D-02-0.198D+00-0.182D+00 0.477D+00 0.895D+00
 Gap=     0.211 Goal=   None    Shift=    0.000
 RMSDP=1.02D-07 MaxDP=1.88D-06 DE=-1.90D-10 OVMax= 1.49D-05

 Cycle  15  Pass 1  IDiag  1:
 RMSU=  3.99D-08    CP:  1.00D+00  1.05D+00  7.94D-01  1.86D+00  1.33D+00
 E= -385.587863307003     Delta-E=       -0.000000000121 Rises=F Damp=F
 DIIS: error= 2.91D-07 at cycle   6 NSaved=   6.
 NSaved= 6 IEnMin= 6 EnMin= -385.587863307003     IErMin= 6 ErrMin= 2.91D-07
 ErrMax= 2.91D-07  0.00D+00 EMaxC= 1.00D-01 BMatC= 3.07D-12 BMatP= 1.67D-11
 IDIUse=1 WtCom= 1.00D+00 WtEn= 0.00D+00
 Coeff-Com:  0.350D-02-0.529D-01-0.542D-01-0.102D+00 0.245D+00 0.961D+00
 Coeff:      0.350D-02-0.529D-01-0.542D-01-0.102D+00 0.245D+00 0.961D+00
 Gap=     0.211 Goal=   None    Shift=    0.000
 RMSDP=4.99D-08 MaxDP=8.64D-07 DE=-1.21D-10 OVMax= 6.94D-06

 Cycle  16  Pass 1  IDiag  1:
 RMSU=  1.70D-08    CP:  1.00D+00  1.05D+00  8.18D-01  2.07D+00  1.72D+00
                    CP:  1.26D+00
 E= -385.587863307026     Delta-E=       -0.000000000023 Rises=F Damp=F
 DIIS: error= 1.18D-07 at cycle   7 NSaved=   7.
 NSaved= 7 IEnMin= 7 EnMin= -385.587863307026     IErMin= 7 ErrMin= 1.18D-07
 ErrMax= 1.18D-07  0.00D+00 EMaxC= 1.00D-01 BMatC= 1.19D-12 BMatP= 3.07D-12
 IDIUse=1 WtCom= 1.00D+00 WtEn= 0.00D+00
 Coeff-Com: -0.567D-03 0.282D-01 0.237D-01-0.206D+00-0.124D+00 0.557D+00
 Coeff-Com:  0.722D+00
 Coeff:     -0.567D-03 0.282D-01 0.237D-01-0.206D+00-0.124D+00 0.557D+00
 Coeff:      0.722D+00
 Gap=     0.211 Goal=   None    Shift=    0.000
 RMSDP=2.31D-08 MaxDP=4.25D-07 DE=-2.34D-11 OVMax= 2.99D-06

 Cycle  17  Pass 1  IDiag  1:
 RMSU=  6.68D-09    CP:  1.00D+00  1.05D+00  8.30D-01  2.16D+00  1.87D+00
                    CP:  1.50D+00  8.30D-01
 E= -385.587863307032     Delta-E=       -0.000000000006 Rises=F Damp=F
 DIIS: error= 3.91D-08 at cycle   8 NSaved=   8.
 NSaved= 8 IEnMin= 8 EnMin= -385.587863307032     IErMin= 8 ErrMin= 3.91D-08
 ErrMax= 3.91D-08  0.00D+00 EMaxC= 1.00D-01 BMatC= 1.00D-13 BMatP= 1.19D-12
 IDIUse=1 WtCom= 1.00D+00 WtEn= 0.00D+00
 Coeff-Com: -0.693D-03 0.183D-01 0.168D-01-0.636D-01-0.815D-01 0.968D-01
 Coeff-Com:  0.274D+00 0.740D+00
 Coeff:     -0.693D-03 0.183D-01 0.168D-01-0.636D-01-0.815D-01 0.968D-01
 Coeff:      0.274D+00 0.740D+00
 Gap=     0.211 Goal=   None    Shift=    0.000
 RMSDP=4.72D-09 MaxDP=9.21D-08 DE=-5.57D-12 OVMax= 4.97D-07

 SCF Done:  E(RCAM-B3LYP) =  -385.587863307     A.U. after   17 cycles
            NFock= 17  Conv=0.47D-08     -V/T= 2.0097
 KE= 3.818776538480D+02 PE=-1.799877630160D+03 EE= 5.788518440278D+02
 Leave Link  502 at Fri Apr 26 11:48:50 2024, MaxMem= 34359738368 cpu:             281.2 elap:               9.1
 (Enter /apps/gaussian/g16-c01-avx2/g16/l601.exe)
 Copying SCF densities to generalized density rwf, IOpCl= 0 IROHF=0.

 **********************************************************************

            Population analysis using the SCF Density.

 **********************************************************************

 Orbital symmetries:
       Occupied  (A) (A) (A) (A) (A) (A) (A) (A) (A) (A) (A) (A)
                 (A) (A) (A) (A) (A) (A) (A) (A) (A) (A) (A) (A)
                 (A) (A) (A) (A) (A) (A) (A) (A) (A) (A)
       Virtual   (A) (A) (A) (A) (A) (A) (A) (A) (A) (A) (A) (A)
                 (A) (A) (A) (A) (A) (A) (A) (A) (A) (A) (A) (A)
                 (A) (A) (A) (A) (A) (A) (A) (A) (A) (A) (A) (A)
                 (A) (A) (A) (A) (A) (A) (A) (A) (A) (A) (A) (A)
                 (A) (A) (A) (A) (A) (A) (A) (A) (A) (A) (A) (A)
                 (A) (A) (A) (A) (A) (A) (A) (A) (A) (A) (A) (A)
                 (A) (A) (A) (A) (A) (A) (A) (A) (A) (A) (A) (A)
                 (A) (A) (A) (A) (A) (A) (A) (A) (A) (A) (A) (A)
                 (A) (A) (A) (A) (A) (A) (A) (A) (A) (A) (A) (A)
                 (A) (A) (A) (A) (A) (A) (A) (A) (A) (A) (A) (A)
                 (A) (A) (A) (A) (A) (A) (A) (A) (A) (A) (A) (A)
 The electronic state is 1-A.
 Alpha  occ. eigenvalues --  -10.28423 -10.28081 -10.28001 -10.27137 -10.26883
 Alpha  occ. eigenvalues --  -10.26866 -10.26335 -10.25662 -10.24465 -10.24331
 Alpha  occ. eigenvalues --   -0.95043  -0.90173  -0.86605  -0.81324  -0.77482
 Alpha  occ. eigenvalues --   -0.71807  -0.68620  -0.61881  -0.61159  -0.57983
 Alpha  occ. eigenvalues --   -0.56004  -0.51593  -0.51482  -0.46582  -0.45348
 Alpha  occ. eigenvalues --   -0.45266  -0.43682  -0.42511  -0.41325  -0.39025
 Alpha  occ. eigenvalues --   -0.38618  -0.35797  -0.27843  -0.23431
 Alpha virt. eigenvalues --   -0.02284   0.00897   0.12421   0.14337   0.16037
 Alpha virt. eigenvalues --    0.18177   0.19328   0.20248   0.21721   0.21820
 Alpha virt. eigenvalues --    0.22651   0.24866   0.25370   0.28052   0.32909
 Alpha virt. eigenvalues --    0.33658   0.36970   0.39869   0.42323   0.44601
 Alpha virt. eigenvalues --    0.47657   0.49842   0.51607   0.55994   0.57188
 Alpha virt. eigenvalues --    0.58635   0.60389   0.61469   0.62142   0.62529
 Alpha virt. eigenvalues --    0.63656   0.64818   0.65353   0.66425   0.66516
 Alpha virt. eigenvalues --    0.67545   0.68141   0.69953   0.71112   0.73302
 Alpha virt. eigenvalues --    0.74713   0.75376   0.80535   0.86236   0.86936
 Alpha virt. eigenvalues --    0.87189   0.88019   0.88476   0.89000   0.89843
 Alpha virt. eigenvalues --    0.90316   0.91551   0.94406   0.96491   0.99425
 Alpha virt. eigenvalues --    1.04107   1.04738   1.07821   1.08060   1.08291
 Alpha virt. eigenvalues --    1.09670   1.11275   1.12990   1.13746   1.17945
 Alpha virt. eigenvalues --    1.18493   1.19526   1.21336   1.23415   1.26914
 Alpha virt. eigenvalues --    1.27626   1.32559   1.33195   1.36396   1.38200
 Alpha virt. eigenvalues --    1.41930   1.46962   1.49546   1.50695   1.63420
 Alpha virt. eigenvalues --    1.66811   1.68800   1.68898   1.70990   1.71111
 Alpha virt. eigenvalues --    1.71301   1.74538   1.76794   1.79929   1.83448
 Alpha virt. eigenvalues --    1.85157   1.88393   1.90324   1.95198   1.95944
 Alpha virt. eigenvalues --    1.96554   1.99155   2.02452   2.04104   2.07283
 Alpha virt. eigenvalues --    2.09569   2.10421   2.16873   2.17580   2.18010
 Alpha virt. eigenvalues --    2.20645   2.24042   2.27704   2.29528   2.43120
 Alpha virt. eigenvalues --    2.45511   2.48842   2.51643   2.52057   2.53803
 Alpha virt. eigenvalues --    2.53976   2.58888   2.63206   2.87348   2.89101
 Alpha virt. eigenvalues --    2.96788   3.02154   3.09913   3.11020   3.11237
 Alpha virt. eigenvalues --    3.16090   3.16912   3.27180   3.33412   3.53305
 Alpha virt. eigenvalues --    3.80717   3.90652
          Condensed to atoms (all electrons):
               1          2          3          4          5          6
     1  C    4.813158   0.584688  -0.019249   0.505551  -0.015733  -0.020580
     2  C    0.584688   4.864216   0.454536  -0.028683   0.012513  -0.007452
     3  C   -0.019249   0.454536   5.168171  -0.004035   0.471447  -0.036439
     4  C    0.505551  -0.028683  -0.004035   4.871783  -0.011647   0.539005
     5  C   -0.015733   0.012513   0.471447  -0.011647   4.724245  -0.043890
     6  C   -0.020580  -0.007452  -0.036439   0.539005  -0.043890   5.085402
     7  C   -0.012263  -0.009506  -0.054826   0.009006   0.375797   0.436848
     8  H    0.359572  -0.042888   0.005281  -0.043412   0.000010   0.005516
     9  H   -0.042604   0.361581  -0.042959   0.005195   0.004424   0.000005
    10  H    0.005354  -0.049131   0.355330   0.000014  -0.037817  -0.000374
    11  H   -0.043914   0.005631  -0.000009   0.361582  -0.000055  -0.041263
    12  H    0.005175   0.000002  -0.000422  -0.049478   0.005191   0.356002
    13  C    0.000005   0.005590  -0.104277  -0.000557   0.441790   0.016893
    14  H    0.000004   0.000084  -0.005932  -0.000003  -0.045926  -0.000108
    15  C   -0.000004  -0.000143   0.005793  -0.000164  -0.021143   0.004807
    16  H   -0.000000   0.000002  -0.000129   0.000002   0.004667  -0.000092
    17  C    0.000136  -0.000675   0.020781   0.006493  -0.022439  -0.110556
    18  H    0.000007  -0.000005  -0.000152   0.000106   0.005825  -0.005534
               7          8          9         10         11         12
     1  C   -0.012263   0.359572  -0.042604   0.005354  -0.043914   0.005175
     2  C   -0.009506  -0.042888   0.361581  -0.049131   0.005631   0.000002
     3  C   -0.054826   0.005281  -0.042959   0.355330  -0.000009  -0.000422
     4  C    0.009006  -0.043412   0.005195   0.000014   0.361582  -0.049478
     5  C    0.375797   0.000010   0.004424  -0.037817  -0.000055   0.005191
     6  C    0.436848   0.005516   0.000005  -0.000374  -0.041263   0.356002
     7  C    4.725514  -0.000026  -0.000074   0.004967   0.003999  -0.039267
     8  H   -0.000026   0.586028  -0.009560  -0.000177  -0.008795  -0.000179
     9  H   -0.000074  -0.009560   0.589481  -0.007554  -0.000178   0.000004
    10  H    0.004967  -0.000177  -0.007554   0.582537   0.000003   0.000004
    11  H    0.003999  -0.008795  -0.000178   0.000003   0.590750  -0.008767
    12  H   -0.039267  -0.000179   0.000004   0.000004  -0.008767   0.588400
    13  C   -0.025067   0.000002  -0.000162  -0.010774   0.000001  -0.000050
    14  H    0.006076  -0.000000  -0.000000   0.004766  -0.000000   0.000003
    15  C   -0.022402  -0.000000   0.000002   0.000057   0.000002   0.000035
    16  H    0.004979   0.000000  -0.000000  -0.000007  -0.000000  -0.000005
    17  C    0.495033   0.000001   0.000001  -0.000019  -0.000181  -0.010410
    18  H   -0.045338  -0.000000  -0.000000   0.000003  -0.000004   0.004586
              13         14         15         16         17         18
     1  C    0.000005   0.000004  -0.000004  -0.000000   0.000136   0.000007
     2  C    0.005590   0.000084  -0.000143   0.000002  -0.000675  -0.000005
     3  C   -0.104277  -0.005932   0.005793  -0.000129   0.020781  -0.000152
     4  C   -0.000557  -0.000003  -0.000164   0.000002   0.006493   0.000106
     5  C    0.441790  -0.045926  -0.021143   0.004667  -0.022439   0.005825
     6  C    0.016893  -0.000108   0.004807  -0.000092  -0.110556  -0.005534
     7  C   -0.025067   0.006076  -0.022402   0.004979   0.495033  -0.045338
     8  H    0.000002  -0.000000  -0.000000   0.000000   0.000001  -0.000000
     9  H   -0.000162  -0.000000   0.000002  -0.000000   0.000001  -0.000000
    10  H   -0.010774   0.004766   0.000057  -0.000007  -0.000019   0.000003
    11  H    0.000001  -0.000000   0.000002  -0.000000  -0.000181  -0.000004
    12  H   -0.000050   0.000003   0.000035  -0.000005  -0.010410   0.004586
    13  C    5.096986   0.368454   0.559707  -0.045299  -0.093450   0.004794
    14  H    0.368454   0.592076  -0.048769  -0.002967   0.004459  -0.000110
    15  C    0.559707  -0.048769   4.868028   0.367957   0.479823  -0.047772
    16  H   -0.045299  -0.002967   0.367957   0.581414  -0.045324  -0.002555
    17  C   -0.093450   0.004459   0.479823  -0.045324   5.153801   0.367496
    18  H    0.004794  -0.000110  -0.047772  -0.002555   0.367496   0.590520
 Mulliken charges:
               1
     1  C   -0.119302
     2  C   -0.150361
     3  C   -0.212909
     4  C   -0.160757
     5  C    0.152744
     6  C   -0.178191
     7  C    0.146551
     8  H    0.148628
     9  H    0.142398
    10  H    0.152818
    11  H    0.141196
    12  H    0.149176
    13  C   -0.214587
    14  H    0.127895
    15  C   -0.145816
    16  H    0.137356
    17  C   -0.244969
    18  H    0.128133
 Sum of Mulliken charges =  -0.00000
 Mulliken charges with hydrogens summed into heavy atoms:
               1
     1  C    0.029326
     2  C   -0.007963
     3  C   -0.060092
     4  C   -0.019561
     5  C    0.152744
     6  C   -0.029015
     7  C    0.146551
    13  C   -0.086693
    15  C   -0.008460
    17  C   -0.116837
 Electronic spatial extent (au):  <R**2>=           1306.9425
 Charge=             -0.0000 electrons
 Dipole moment (field-independent basis, Debye):
    X=              1.2064    Y=             -0.1340    Z=              0.0001  Tot=              1.2138
 Quadrupole moment (field-independent basis, Debye-Ang):
   XX=            -51.4183   YY=            -50.4824   ZZ=            -62.4964
   XY=             -0.2951   XZ=              0.0006   YZ=             -0.0004
 Traceless Quadrupole moment (field-independent basis, Debye-Ang):
   XX=              3.3807   YY=              4.3166   ZZ=             -7.6973
   XY=             -0.2951   XZ=              0.0006   YZ=             -0.0004
 Octapole moment (field-independent basis, Debye-Ang**2):
  XXX=              6.5342  YYY=             -1.2968  ZZZ=             -0.0001  XYY=              2.2750
  XXY=              1.1224  XXZ=              0.0079  XZZ=              1.1141  YZZ=             -0.1102
  YYZ=             -0.0031  XYZ=              0.0062
 Hexadecapole moment (field-independent basis, Debye-Ang**3):
 XXXX=          -1065.3418 YYYY=           -510.5991 ZZZZ=            -64.9616 XXXY=             -1.9260
 XXXZ=              0.0134 YYYX=             -1.5661 YYYZ=             -0.0037 ZZZX=              0.0010
 ZZZY=              0.0002 XXYY=           -270.8729 XXZZ=           -229.1475 YYZZ=           -114.9341
 XXYZ=             -0.0001 YYXZ=             -0.0037 ZZXY=             -0.2527
 N-N= 4.535602689767D+02 E-N=-1.799877627284D+03  KE= 3.818776538480D+02
 No NMR shielding tensors so no spin-rotation constants.
 Leave Link  601 at Fri Apr 26 11:48:51 2024, MaxMem= 34359738368 cpu:               3.9 elap:               0.2
 (Enter /apps/gaussian/g16-c01-avx2/g16/l701.exe)
 ... and contract with generalized density number  0.
 Compute integral first derivatives.
 Leave Link  701 at Fri Apr 26 11:48:51 2024, MaxMem= 34359738368 cpu:               6.8 elap:               0.3
 (Enter /apps/gaussian/g16-c01-avx2/g16/l702.exe)
 L702 exits ... SP integral derivatives will be done elsewhere.
 Leave Link  702 at Fri Apr 26 11:48:52 2024, MaxMem= 34359738368 cpu:               0.7 elap:               0.0
 (Enter /apps/gaussian/g16-c01-avx2/g16/l703.exe)
 Integral derivatives from FoFJK, PRISM(SPDF).
 Compute integral first derivatives, UseDBF=F ICtDFT=           0.
 Calling FoFJK, ICntrl=      2127 FMM=F ISym2X=0 I1Cent= 0 IOpClX= 0 NMat=1 NMatS=1 NMatT=0.
 FoFJK:  IHMeth= 1 ICntrl=    2127 DoSepK=T KAlg= 0 I1Cent=           0 FoldK=F
 IRaf=         1 NMat=       1 IRICut=       1 DoRegI=T DoRafI=F ISym2E= 0 IDoP0=0 IntGTp=1.
 FoFCou: FMM=F IPFlag=           0 FMFlag=      100000 FMFlg1=         800
         NFxFlg=           0 DoJE=F BraDBF=F KetDBF=F FulRan=T
         wScrn=  0.000000 ICntrl=      2527 IOpCl=  0 I1Cent=           0 NGrid=           0
         NMat0=    1 NMatS0=      1 NMatT0=    0 NMatD0=    1 NMtDS0=    0 NMtDT0=    0
 Symmetry not used in FoFCou.
 Leave Link  703 at Fri Apr 26 11:48:54 2024, MaxMem= 34359738368 cpu:              58.2 elap:               1.9
 (Enter /apps/gaussian/g16-c01-avx2/g16/l716.exe)
 Dipole        = 4.74618905D-01-5.27237916D-02 2.69064500D-05
 ***** Axes restored to original set *****
 -------------------------------------------------------------------
 Center     Atomic                   Forces (Hartrees/Bohr)
 Number     Number              X              Y              Z
 -------------------------------------------------------------------
      1        6          -0.019000657   -0.009775691    0.000003445
      2        6           0.021541637   -0.013395764   -0.000020840
      3        6           0.009772004   -0.015749600   -0.000010968
      4        6          -0.017364286   -0.018160957    0.000000754
      5        6           0.017652702    0.033366593   -0.000001249
      6        6          -0.003050551    0.022179519    0.000005997
      7        6          -0.004425008    0.009737914    0.000008860
      8        1           0.007070185    0.011355776    0.000014980
      9        1          -0.006971635    0.010760166   -0.000000242
     10        1          -0.011875490    0.004577561    0.000003160
     11        1           0.012112658    0.004619610   -0.000000089
     12        1           0.009158122   -0.008604804   -0.000014118
     13        6          -0.010902614   -0.013822499    0.000007273
     14        1          -0.002332842    0.001086575    0.000011923
     15        6          -0.016012191   -0.008934989   -0.000000198
     16        1           0.000283573   -0.003374985   -0.000002075
     17        6           0.014180740   -0.002530835    0.000000078
     18        1           0.000163654   -0.003333590   -0.000006693
 -------------------------------------------------------------------
 Cartesian Forces:  Max     0.033366593 RMS     0.010390269
 Leave Link  716 at Fri Apr 26 11:48:55 2024, MaxMem= 34359738368 cpu:               0.9 elap:               0.1
 (Enter /apps/gaussian/g16-c01-avx2/g16/l103.exe)

 GradGradGradGradGradGradGradGradGradGradGradGradGradGradGradGradGradGrad
 Berny optimization.
 FormGI is forming the generalized inverse of G from B-inverse, IUseBI=4.
 Internal  Forces:  Max     0.023652611 RMS     0.005113431
 Search for a local minimum.
 Step number   1 out of a maximum of  103
 All quantities printed in internal units (Hartrees-Bohrs-Radians)
 RMS Force = .51134D-02 SwitMx=.10000D-02 MixMth= 1
 Mixed Optimization -- RFO/linear search
 Second derivative matrix not updated -- first step.
 ITU=  0
     Eigenvalues ---    0.01469   0.01668   0.01785   0.01826   0.01876
     Eigenvalues ---    0.01886   0.02047   0.02073   0.02138   0.02252
     Eigenvalues ---    0.02264   0.02275   0.02283   0.02413   0.02504
     Eigenvalues ---    0.16000   0.16000   0.16000   0.16000   0.16000
     Eigenvalues ---    0.16000   0.16000   0.16000   0.22000   0.22000
     Eigenvalues ---    0.22201   0.22930   0.24027   0.24743   0.31870
     Eigenvalues ---    0.32604   0.32630   0.32656   0.32758   0.32777
     Eigenvalues ---    0.34902   0.35075   0.35082   0.35322   0.38143
     Eigenvalues ---    0.41508   0.42113   0.43493   0.44222   0.47824
     Eigenvalues ---    0.51219   0.51690   0.53330
 RFO step:  Lambda=-6.45236702D-03 EMin= 1.46869170D-02
 Linear search not attempted -- first point.
 Iteration  1 RMS(Cart)=  0.01339638 RMS(Int)=  0.00007188
 Iteration  2 RMS(Cart)=  0.00009768 RMS(Int)=  0.00000772
 Iteration  3 RMS(Cart)=  0.00000001 RMS(Int)=  0.00000772
 ITry= 1 IFail=0 DXMaxC= 5.78D-02 DCOld= 1.00D+10 DXMaxT= 3.00D-01 DXLimC= 3.00D+00 Rises=F
 Variable       Old X    -DE/DX   Delta X   Delta X   Delta X     New X
                                 (Linear)    (Quad)   (Total)
    R1        2.57141   0.01277   0.00000   0.02421   0.02421   2.59562
    R2        2.67542   0.00019   0.00000   0.00073   0.00073   2.67615
    R3        2.09752  -0.01331   0.00000  -0.04004  -0.04004   2.05749
    R4        2.67543   0.00004   0.00000   0.00029   0.00029   2.67573
    R5        2.09444  -0.01275   0.00000  -0.03813  -0.03813   2.05631
    R6        2.56350   0.01228   0.00000   0.02249   0.02249   2.58600
    R7        2.09659  -0.01263   0.00000  -0.03791  -0.03791   2.05868
    R8        2.56983   0.01370   0.00000   0.02553   0.02553   2.59536
    R9        2.09479  -0.01291   0.00000  -0.03864  -0.03864   2.05615
   R10        2.80490   0.00195   0.00000   0.00610   0.00608   2.81098
   R11        2.75436  -0.02365   0.00000  -0.06212  -0.06212   2.69223
   R12        2.66680  -0.00173   0.00000  -0.00420  -0.00420   2.66260
   R13        2.09706  -0.01252   0.00000  -0.03762  -0.03762   2.05944
   R14        2.63021  -0.01190   0.00000  -0.02477  -0.02479   2.60542
   R15        2.05543  -0.00246   0.00000  -0.00689  -0.00689   2.04853
   R16        2.60917  -0.00486   0.00000  -0.01033  -0.01031   2.59886
   R17        2.05835  -0.00298   0.00000  -0.00838  -0.00838   2.04997
   R18        2.72988  -0.01551   0.00000  -0.03984  -0.03983   2.69005
   R19        2.05553  -0.00247   0.00000  -0.00692  -0.00692   2.04861
    A1        2.26411   0.00015   0.00000   0.00224   0.00224   2.26634
    A2        2.02870  -0.00146   0.00000  -0.00945  -0.00945   2.01925
    A3        1.99038   0.00131   0.00000   0.00721   0.00721   1.99759
    A4        2.24943  -0.00184   0.00000  -0.00675  -0.00674   2.24268
    A5        2.03682  -0.00054   0.00000  -0.00539  -0.00539   2.03143
    A6        1.99694   0.00238   0.00000   0.01214   0.01214   2.00907
    A7        2.23442   0.00250   0.00000   0.01121   0.01121   2.24563
    A8        2.00788   0.00043   0.00000   0.00450   0.00450   2.01238
    A9        2.04088  -0.00293   0.00000  -0.01571  -0.01571   2.02518
   A10        2.25529  -0.00158   0.00000  -0.00632  -0.00632   2.24896
   A11        1.99407   0.00207   0.00000   0.01084   0.01085   2.00492
   A12        2.03383  -0.00049   0.00000  -0.00452  -0.00452   2.02931
   A13        2.25338  -0.00228   0.00000  -0.01051  -0.01050   2.24288
   A14        2.18351   0.00041   0.00000   0.00135   0.00136   2.18487
   A15        1.84630   0.00187   0.00000   0.00916   0.00915   1.85544
   A16        2.24310   0.00161   0.00000   0.00647   0.00646   2.24956
   A17        2.04326  -0.00197   0.00000  -0.01025  -0.01025   2.03301
   A18        1.99682   0.00036   0.00000   0.00379   0.00379   2.00061
   A19        2.20824   0.00145   0.00000   0.00366   0.00367   2.21191
   A20        1.87736  -0.00259   0.00000  -0.00805  -0.00808   1.86928
   A21        2.19758   0.00114   0.00000   0.00439   0.00442   2.20200
   A22        2.15899   0.00181   0.00000   0.00970   0.00968   2.16867
   A23        1.89712  -0.00208   0.00000  -0.01017  -0.01014   1.88698
   A24        2.22708   0.00027   0.00000   0.00047   0.00046   2.22754
   A25        2.21399  -0.00379   0.00000  -0.01817  -0.01818   2.19581
   A26        1.90442   0.00426   0.00000   0.01638   0.01641   1.92083
   A27        2.16478  -0.00047   0.00000   0.00178   0.00177   2.16655
   A28        1.89959  -0.00146   0.00000  -0.00732  -0.00733   1.89226
   A29        2.20885  -0.00158   0.00000  -0.01018  -0.01017   2.19868
   A30        2.17475   0.00303   0.00000   0.01750   0.01750   2.19225
    D1       -0.00074   0.00001   0.00000   0.00037   0.00037  -0.00037
    D2        3.14119   0.00001   0.00000   0.00016   0.00016   3.14136
    D3        3.14101   0.00001   0.00000   0.00030   0.00030   3.14131
    D4       -0.00024   0.00000   0.00000   0.00010   0.00010  -0.00014
    D5        0.00009  -0.00000   0.00000  -0.00006  -0.00006   0.00003
    D6       -3.14128  -0.00000   0.00000  -0.00017  -0.00017  -3.14145
    D7        3.14153  -0.00000   0.00000  -0.00000  -0.00000   3.14153
    D8        0.00016  -0.00000   0.00000  -0.00011  -0.00011   0.00005
    D9        0.00025  -0.00000   0.00000  -0.00013  -0.00013   0.00012
   D10       -3.14118  -0.00001   0.00000  -0.00024  -0.00024  -3.14142
   D11        3.14151   0.00000   0.00000   0.00007   0.00007   3.14158
   D12        0.00008  -0.00000   0.00000  -0.00004  -0.00004   0.00004
   D13        0.00063  -0.00001   0.00000  -0.00027  -0.00027   0.00036
   D14       -3.14132  -0.00001   0.00000  -0.00025  -0.00025  -3.14158
   D15       -3.14112  -0.00000   0.00000  -0.00016  -0.00016  -3.14128
   D16        0.00011  -0.00000   0.00000  -0.00014  -0.00014  -0.00004
   D17        0.00062  -0.00001   0.00000  -0.00030  -0.00030   0.00032
   D18       -3.14124  -0.00000   0.00000  -0.00014  -0.00014  -3.14138
   D19       -3.14120  -0.00001   0.00000  -0.00019  -0.00019  -3.14139
   D20        0.00013  -0.00000   0.00000  -0.00003  -0.00003   0.00010
   D21       -0.00059   0.00000   0.00000   0.00022   0.00022  -0.00037
   D22        3.14114   0.00000   0.00000   0.00022   0.00022   3.14136
   D23        3.14131   0.00000   0.00000   0.00021   0.00021   3.14152
   D24       -0.00014   0.00000   0.00000   0.00021   0.00021   0.00007
   D25        0.00054  -0.00001   0.00000  -0.00023  -0.00023   0.00031
   D26       -3.14117  -0.00001   0.00000  -0.00026  -0.00026  -3.14143
   D27       -3.14135  -0.00001   0.00000  -0.00023  -0.00022  -3.14157
   D28        0.00014  -0.00001   0.00000  -0.00025  -0.00025  -0.00012
   D29       -0.00028   0.00001   0.00000   0.00019   0.00019  -0.00010
   D30        3.14114   0.00001   0.00000   0.00018   0.00018   3.14133
   D31        3.14157   0.00000   0.00000   0.00003   0.00003  -3.14159
   D32       -0.00019   0.00000   0.00000   0.00003   0.00003  -0.00016
   D33        0.00010  -0.00000   0.00000  -0.00009  -0.00009   0.00000
   D34       -3.14143  -0.00000   0.00000  -0.00013  -0.00013  -3.14156
   D35       -3.14136  -0.00000   0.00000  -0.00009  -0.00009  -3.14145
   D36        0.00030  -0.00000   0.00000  -0.00013  -0.00012   0.00017
   D37        3.14158   0.00000   0.00000   0.00008   0.00008  -3.14153
   D38       -0.00008   0.00000   0.00000   0.00020   0.00020   0.00012
   D39       -0.00013   0.00000   0.00000   0.00005   0.00005  -0.00008
   D40        3.14140   0.00000   0.00000   0.00017   0.00018   3.14157
   D41       -0.00001  -0.00000   0.00000  -0.00007  -0.00007  -0.00008
   D42        3.14152  -0.00000   0.00000  -0.00004  -0.00004   3.14149
   D43        3.14152   0.00000   0.00000   0.00005   0.00005   3.14157
   D44       -0.00013   0.00000   0.00000   0.00008   0.00009  -0.00005
         Item               Value     Threshold  Converged?
 Maximum Force            0.023653     0.000450     NO 
 RMS     Force            0.005113     0.000300     NO 
 Maximum Displacement     0.057779     0.001800     NO 
 RMS     Displacement     0.013391     0.001200     NO 
 Predicted change in Energy=-3.284946D-03
 Lowest energy point so far.  Saving SCF results.
 GradGradGradGradGradGradGradGradGradGradGradGradGradGradGradGradGradGrad

 Leave Link  103 at Fri Apr 26 11:48:55 2024, MaxMem= 34359738368 cpu:               3.7 elap:               0.2
 (Enter /apps/gaussian/g16-c01-avx2/g16/l202.exe)
                          Input orientation:                          
 ---------------------------------------------------------------------
 Center     Atomic      Atomic             Coordinates (Angstroms)
 Number     Number       Type             X           Y           Z
 ---------------------------------------------------------------------
      1          6           0       -1.588416    0.637013   -0.020626
      2          6           0       -0.214874    0.635793   -0.020958
      3          6           0        0.667479    1.743186   -0.020966
      4          6           0       -2.494929    1.725011   -0.019799
      5          6           0        0.364585    3.077693   -0.020512
      6          6           0       -2.224803    3.071590   -0.019143
      7          6           0       -0.975555    3.723221   -0.019468
      8          1           0       -2.061354   -0.343682   -0.020967
      9          1           0        0.267958   -0.339373   -0.021391
     10          1           0        1.727900    1.493562   -0.021440
     11          1           0       -3.546279    1.444726   -0.019558
     12          1           0       -3.085617    3.739935   -0.018346
     13          6           0        1.318404    4.135952   -0.020574
     14          1           0        2.392480    3.989336   -0.021265
     15          6           0        0.633780    5.328688   -0.019805
     16          1           0        1.080770    6.317115   -0.019708
     17          6           0       -0.768959    5.086382   -0.019062
     18          1           0       -1.540947    5.847473   -0.018282
 ---------------------------------------------------------------------
                    Distance matrix (angstroms):
                    1          2          3          4          5
     1  C    0.000000
     2  C    1.373543   0.000000
     3  C    2.512505   1.415933   0.000000
     4  C    1.416159   2.526866   3.162461   0.000000
     5  C    3.125882   2.509711   1.368450   3.163317   0.000000
     6  C    2.516378   3.157995   3.182759   1.373406   2.589396
     7  C    3.146471   3.179757   2.572956   2.510247   1.487509
     8  H    1.088776   2.090182   3.435338   2.113642   4.194162
     9  H    2.097488   1.088152   2.120535   3.448947   3.418432
    10  H    3.425147   2.123709   1.089406   4.229168   2.090000
    11  H    2.117930   3.428212   4.224315   1.088070   4.238094
    12  H    3.445249   4.228106   4.251206   2.099722   3.513185
    13  C    4.548866   3.821264   2.479724   4.511557   1.424669
    14  H    5.204384   4.247888   2.832106   5.386459   2.223388
    15  C    5.191336   4.769012   3.585661   4.772348   2.267034
    16  H    6.275996   5.827188   4.592564   5.820055   3.317646
    17  C    4.524201   4.484948   3.638725   3.778596   2.306460
    18  H    5.210677   5.377740   4.660722   4.231404   3.361955
                    6          7          8          9         10
     6  C    0.000000
     7  C    1.408987   0.000000
     8  H    3.419182   4.209354   0.000000
     9  H    4.224753   4.248647   2.329317   0.000000
    10  H    4.256059   3.504290   4.211165   2.343305   0.000000
    11  H    2.095945   3.435136   2.324523   4.210869   5.274405
    12  H    1.089811   2.110129   4.210113   5.280836   5.311888
    13  C    3.699619   2.330793   5.611585   4.596952   2.673932
    14  H    4.707607   3.378532   6.213831   4.821962   2.582742
    15  C    3.642250   2.273210   6.280090   5.679854   3.988144
    16  H    4.632520   3.310099   7.364725   6.705930   4.866770
    17  C    2.485732   1.378728   5.581746   5.523950   4.375233
    18  H    2.858878   2.198208   6.212989   6.445868   5.444439
                   11         12         13         14         15
    11  H    0.000000
    12  H    2.340981   0.000000
    13  C    5.559482   4.421791   0.000000
    14  H    6.460952   5.483773   1.084037   0.000000
    15  C    5.705966   4.044509   1.375256   2.210631   0.000000
    16  H    6.719357   4.899045   2.194070   2.671917   1.084799
    17  C    4.579865   2.679519   2.293557   3.346373   1.423514
    18  H    4.837927   2.612991   3.332446   4.350233   2.235750
                   16         17         18
    16  H    0.000000
    17  C    2.221757   0.000000
    18  H    2.663450   1.084078   0.000000
 Stoichiometry    C10H8
 Framework group  C1[X(C10H8)]
 Deg. of freedom    48
 Full point group                 C1      NOp   1
 RotChk:  IX=0 Diff= 1.97D-03
 Largest Abelian subgroup         C1      NOp   1
 Largest concise Abelian subgroup C1      NOp   1
                         Standard orientation:                         
 ---------------------------------------------------------------------
 Center     Atomic      Atomic             Coordinates (Angstroms)
 Number     Number       Type             X           Y           Z
 ---------------------------------------------------------------------
      1          6           0        2.494577   -0.031839    0.000148
      2          6           0        1.900541   -1.270283   -0.000145
      3          6           0        0.520185   -1.585691   -0.000117
      4          6           0        1.906790    1.256576    0.000149
      5          6           0       -0.551310   -0.734484    0.000076
      6          6           0        0.576135    1.596576   -0.000118
      7          6           0       -0.552433    0.753025   -0.000113
      8          1           0        3.583352   -0.030522    0.000331
      9          1           0        2.570211   -2.127963   -0.000303
     10          1           0        0.285695   -2.649561   -0.000221
     11          1           0        2.614934    2.082668    0.000279
     12          1           0        0.346763    2.661975   -0.000268
     13          6           0       -1.918348   -1.135591    0.000107
     14          1           0       -2.251592   -2.167136    0.000253
     15          6           0       -2.696672   -0.001774    0.000104
     16          1           0       -3.781173    0.023645    0.000179
     17          6           0       -1.870505    1.157467   -0.000093
     18          1           0       -2.221953    2.182997   -0.000232
 ---------------------------------------------------------------------
 Rotational constants (GHZ):           2.8616499           1.2609956           0.8752942
 Leave Link  202 at Fri Apr 26 11:48:55 2024, MaxMem= 34359738368 cpu:               0.2 elap:               0.0
 (Enter /apps/gaussian/g16-c01-avx2/g16/l301.exe)
 Standard basis: 6-31(d') (6D, 7F)
 Ernie: Thresh=  0.10000D-02 Tol=  0.10000D-05 Strict=F.
 There are   166 symmetry adapted cartesian basis functions of A   symmetry.
 There are   166 symmetry adapted basis functions of A   symmetry.
   166 basis functions,   312 primitive gaussians,   166 cartesian basis functions
    34 alpha electrons       34 beta electrons
       nuclear repulsion energy       454.8143359460 Hartrees.
 IExCor=20419 DFT=T Ex+Corr=CAM-B3LYP ExCW=0 ScaHFX=  1.000000
 ScaDFX=  1.000000  1.000000  1.000000  0.810000 ScalE2=  1.000000  1.000000
 IRadAn=      5 IRanWt=     -1 IRanGd=            0 ICorTp=0 IEmpDi=  4
 HFx  wShort=  0.000000 wLong=  0.330000 cFull=  0.190000 cShort=  0.000000 cLong=  0.460000
 DFx  wShort=  0.000000 wLong=  0.330000 cFull=  0.190000 cShort=  0.000000 cLong=  0.460000
 NAtoms=   18 NActive=   18 NUniq=   18 SFac= 1.00D+00 NAtFMM=   60 NAOKFM=F Big=F
 Integral buffers will be    131072 words long.
 Raffenetti 2 integral format.
 Two-electron integral symmetry is turned on.
 Leave Link  301 at Fri Apr 26 11:48:55 2024, MaxMem= 34359738368 cpu:               1.0 elap:               0.1
 (Enter /apps/gaussian/g16-c01-avx2/g16/l302.exe)
 NPDir=0 NMtPBC=     1 NCelOv=     1 NCel=       1 NClECP=     1 NCelD=      1
         NCelK=      1 NCelE2=     1 NClLst=     1 CellRange=     0.0.
 One-electron integrals computed using PRISM.
 One-electron integral symmetry used in STVInt
 NBasis=   166 RedAO= T EigKep=  5.78D-04  NBF=   166
 NBsUse=   166 1.00D-06 EigRej= -1.00D+00 NBFU=   166
 Precomputing XC quadrature grid using
 IXCGrd= 4 IRadAn=           5 IRanWt=          -1 IRanGd=           0 AccXCQ= 0.00D+00.
 Generated NRdTot=       0 NPtTot=           0 NUsed=           0 NTot=          32
 NSgBfM=   166   166   166   166   166 MxSgAt=    18 MxSgA2=    18.
 Leave Link  302 at Fri Apr 26 11:48:55 2024, MaxMem= 34359738368 cpu:               6.0 elap:               0.2
 (Enter /apps/gaussian/g16-c01-avx2/g16/l303.exe)
 DipDrv:  MaxL=1.
 Leave Link  303 at Fri Apr 26 11:48:55 2024, MaxMem= 34359738368 cpu:               0.6 elap:               0.0
 (Enter /apps/gaussian/g16-c01-avx2/g16/l401.exe)
 Initial guess from the checkpoint file:  "az_test.chk"
 B after Tr=     0.000000   -0.000000    0.000000
         Rot=    1.000000    0.000000   -0.000000   -0.000664 Ang=   0.08 deg.
 Guess basis will be translated and rotated to current coordinates.
 JPrj=2 DoOrth=T DoCkMO=T.
 Generating alternative initial guess.
 ExpMin= 1.61D-01 ExpMax= 3.05D+03 ExpMxC= 4.57D+02 IAcc=3 IRadAn=         5 AccDes= 0.00D+00
 Harris functional with IExCor=20419 and IRadAn=       5 diagonalized for initial guess.
 HarFok:  IExCor=20419 AccDes= 0.00D+00 IRadAn=         5 IDoV= 1 UseB2=F ITyADJ=14
 ICtDFT=  3500011 ScaDFX=  1.000000  1.000000  1.000000  1.000000
 FoFCou: FMM=F IPFlag=           0 FMFlag=      100000 FMFlg1=           0
         NFxFlg=           0 DoJE=T BraDBF=F KetDBF=T FulRan=T
         wScrn=  0.000000 ICntrl=       500 IOpCl=  0 I1Cent=   200000004 NGrid=           0
         NMat0=    1 NMatS0=      1 NMatT0=    0 NMatD0=    1 NMtDS0=    0 NMtDT0=    0
 Petite list used in FoFCou.
 Harris En= -369.755185541138    
 Leave Link  401 at Fri Apr 26 11:48:56 2024, MaxMem= 34359738368 cpu:              13.0 elap:               0.5
 (Enter /apps/gaussian/g16-c01-avx2/g16/l502.exe)
 Integral symmetry usage will be decided dynamically.
 Closed shell SCF:
 Using DIIS extrapolation, IDIIS=  1040.
 NGot= 34359738368 LenX= 34359675624 LenY= 34359647627
 Requested convergence on RMS density matrix=1.00D-08 within 128 cycles.
 Requested convergence on MAX density matrix=1.00D-06.
 Requested convergence on             energy=1.00D-06.
 No special actions if energy rises.
 Fock matrices will be formed incrementally for  20 cycles.
 Integral accuracy reduced to 1.0D-05 until final iterations.

 Cycle   1  Pass 0  IDiag  1:
 FoFJK:  IHMeth= 1 ICntrl=       0 DoSepK=T KAlg= 0 I1Cent=           0 FoldK=F
 IRaf=         1 NMat=       1 IRICut=       1 DoRegI=T DoRafI=F ISym2E= 0 IDoP0=0 IntGTp=1.
 FoFCou: FMM=F IPFlag=           0 FMFlag=      100000 FMFlg1=           0
         NFxFlg=           0 DoJE=T BraDBF=F KetDBF=F FulRan=T
         wScrn=  0.000000 ICntrl=       500 IOpCl=  0 I1Cent=           0 NGrid=           0
         NMat0=    1 NMatS0=      1 NMatT0=    0 NMatD0=    1 NMtDS0=    0 NMtDT0=    0
 Symmetry not used in FoFCou.
 E= -385.590173920584    
 DIIS: error= 1.26D-03 at cycle   1 NSaved=   1.
 NSaved= 1 IEnMin= 1 EnMin= -385.590173920584     IErMin= 1 ErrMin= 1.26D-03
 ErrMax= 1.26D-03  0.00D+00 EMaxC= 1.00D-01 BMatC= 6.53D-04 BMatP= 6.53D-04
 IDIUse=3 WtCom= 9.87D-01 WtEn= 1.26D-02
 Coeff-Com:  0.100D+01
 Coeff-En:   0.100D+01
 Coeff:      0.100D+01
 Gap=     1.883 Goal=   None    Shift=    0.000
 GapD=    1.883 DampG=2.000 DampE=1.000 DampFc=2.0000 IDamp=-1.
 RMSDP=4.34D-04 MaxDP=6.44D-03              OVMax= 1.37D-02

 Cycle   2  Pass 0  IDiag  1:
 RMSU=  4.31D-04    CP:  1.00D+00
 E= -385.591217742493     Delta-E=       -0.001043821909 Rises=F Damp=F
 DIIS: error= 6.71D-04 at cycle   2 NSaved=   2.
 NSaved= 2 IEnMin= 2 EnMin= -385.591217742493     IErMin= 2 ErrMin= 6.71D-04
 ErrMax= 6.71D-04  0.00D+00 EMaxC= 1.00D-01 BMatC= 9.67D-05 BMatP= 6.53D-04
 IDIUse=3 WtCom= 9.93D-01 WtEn= 6.71D-03
 Coeff-Com:  0.147D+00 0.853D+00
 Coeff-En:   0.000D+00 0.100D+01
 Coeff:      0.146D+00 0.854D+00
 Gap=     0.212 Goal=   None    Shift=    0.000
 RMSDP=1.11D-04 MaxDP=2.54D-03 DE=-1.04D-03 OVMax= 8.59D-03

 Cycle   3  Pass 0  IDiag  1:
 RMSU=  1.07D-04    CP:  1.00D+00  1.07D+00
 E= -385.591289897258     Delta-E=       -0.000072154765 Rises=F Damp=F
 DIIS: error= 7.84D-04 at cycle   3 NSaved=   3.
 NSaved= 3 IEnMin= 3 EnMin= -385.591289897258     IErMin= 2 ErrMin= 6.71D-04
 ErrMax= 7.84D-04  0.00D+00 EMaxC= 1.00D-01 BMatC= 7.21D-05 BMatP= 9.67D-05
 IDIUse=3 WtCom= 9.92D-01 WtEn= 7.84D-03
 Coeff-Com: -0.417D-01 0.463D+00 0.578D+00
 Coeff-En:   0.000D+00 0.260D+00 0.740D+00
 Coeff:     -0.414D-01 0.462D+00 0.580D+00
 Gap=     0.213 Goal=   None    Shift=    0.000
 RMSDP=7.05D-05 MaxDP=1.53D-03 DE=-7.22D-05 OVMax= 6.70D-03

 Cycle   4  Pass 0  IDiag  1:
 RMSU=  5.48D-05    CP:  1.00D+00  1.10D+00  6.09D-01
 E= -385.591386159730     Delta-E=       -0.000096262471 Rises=F Damp=F
 DIIS: error= 3.03D-04 at cycle   4 NSaved=   4.
 NSaved= 4 IEnMin= 4 EnMin= -385.591386159730     IErMin= 4 ErrMin= 3.03D-04
 ErrMax= 3.03D-04  0.00D+00 EMaxC= 1.00D-01 BMatC= 6.45D-06 BMatP= 7.21D-05
 IDIUse=3 WtCom= 9.97D-01 WtEn= 3.03D-03
 Coeff-Com: -0.258D-01 0.739D-01 0.250D+00 0.701D+00
 Coeff-En:   0.000D+00 0.000D+00 0.000D+00 0.100D+01
 Coeff:     -0.257D-01 0.737D-01 0.250D+00 0.702D+00
 Gap=     0.213 Goal=   None    Shift=    0.000
 RMSDP=2.87D-05 MaxDP=4.84D-04 DE=-9.63D-05 OVMax= 3.18D-03

 Cycle   5  Pass 0  IDiag  1:
 RMSU=  2.05D-05    CP:  1.00D+00  1.12D+00  7.78D-01  1.12D+00
 E= -385.591405314980     Delta-E=       -0.000019155250 Rises=F Damp=F
 DIIS: error= 2.03D-04 at cycle   5 NSaved=   5.
 NSaved= 5 IEnMin= 5 EnMin= -385.591405314980     IErMin= 5 ErrMin= 2.03D-04
 ErrMax= 2.03D-04  0.00D+00 EMaxC= 1.00D-01 BMatC= 1.14D-06 BMatP= 6.45D-06
 IDIUse=3 WtCom= 9.98D-01 WtEn= 2.03D-03
 Coeff-Com:  0.133D-02-0.843D-01-0.466D-01 0.181D+00 0.949D+00
 Coeff-En:   0.000D+00 0.000D+00 0.000D+00 0.000D+00 0.100D+01
 Coeff:      0.132D-02-0.841D-01-0.465D-01 0.180D+00 0.949D+00
 Gap=     0.213 Goal=   None    Shift=    0.000
 RMSDP=2.40D-05 MaxDP=4.60D-04 DE=-1.92D-05 OVMax= 3.21D-03

 Cycle   6  Pass 0  IDiag  1:
 RMSU=  8.53D-06    CP:  1.00D+00  1.13D+00  8.61D-01  1.46D+00  1.39D+00
 E= -385.591414500240     Delta-E=       -0.000009185260 Rises=F Damp=F
 DIIS: error= 1.22D-04 at cycle   6 NSaved=   6.
 NSaved= 6 IEnMin= 6 EnMin= -385.591414500240     IErMin= 6 ErrMin= 1.22D-04
 ErrMax= 1.22D-04  0.00D+00 EMaxC= 1.00D-01 BMatC= 3.81D-07 BMatP= 1.14D-06
 IDIUse=3 WtCom= 9.99D-01 WtEn= 1.22D-03
 Coeff-Com:  0.112D-01-0.676D-01-0.122D+00-0.202D+00 0.362D+00 0.102D+01
 Coeff-En:   0.000D+00 0.000D+00 0.000D+00 0.000D+00 0.000D+00 0.100D+01
 Coeff:      0.112D-01-0.675D-01-0.121D+00-0.202D+00 0.362D+00 0.102D+01
 Gap=     0.213 Goal=   None    Shift=    0.000
 RMSDP=2.10D-05 MaxDP=3.83D-04 DE=-9.19D-06 OVMax= 2.94D-03

 Cycle   7  Pass 0  IDiag  1:
 RMSU=  5.30D-06    CP:  1.00D+00  1.14D+00  9.35D-01  1.73D+00  1.90D+00
                    CP:  1.25D+00
 E= -385.591418252750     Delta-E=       -0.000003752511 Rises=F Damp=F
 DIIS: error= 2.83D-05 at cycle   7 NSaved=   7.
 NSaved= 7 IEnMin= 7 EnMin= -385.591418252750     IErMin= 7 ErrMin= 2.83D-05
 ErrMax= 2.83D-05  0.00D+00 EMaxC= 1.00D-01 BMatC= 7.66D-08 BMatP= 3.81D-07
 IDIUse=1 WtCom= 1.00D+00 WtEn= 0.00D+00
 Coeff-Com:  0.468D-02-0.133D-01-0.454D-01-0.125D+00-0.423D-01 0.433D+00
 Coeff-Com:  0.788D+00
 Coeff:      0.468D-02-0.133D-01-0.454D-01-0.125D+00-0.423D-01 0.433D+00
 Coeff:      0.788D+00
 Gap=     0.213 Goal=   None    Shift=    0.000
 RMSDP=7.52D-06 MaxDP=1.41D-04 DE=-3.75D-06 OVMax= 9.71D-04

 Initial convergence to 1.0D-05 achieved.  Increase integral accuracy.
 Cycle   8  Pass 1  IDiag  1:
 E= -385.591438705910     Delta-E=       -0.000020453160 Rises=F Damp=F
 DIIS: error= 1.92D-05 at cycle   1 NSaved=   1.
 NSaved= 1 IEnMin= 1 EnMin= -385.591438705910     IErMin= 1 ErrMin= 1.92D-05
 ErrMax= 1.92D-05  0.00D+00 EMaxC= 1.00D-01 BMatC= 2.55D-08 BMatP= 2.55D-08
 IDIUse=1 WtCom= 1.00D+00 WtEn= 0.00D+00
 Coeff-Com:  0.100D+01
 Coeff:      0.100D+01
 Gap=     0.213 Goal=   None    Shift=    0.000
 RMSDP=7.52D-06 MaxDP=1.41D-04 DE=-2.05D-05 OVMax= 1.32D-04

 Cycle   9  Pass 1  IDiag  1:
 RMSU=  7.60D-06    CP:  1.00D+00
 E= -385.591438724892     Delta-E=       -0.000000018982 Rises=F Damp=F
 DIIS: error= 6.69D-06 at cycle   2 NSaved=   2.
 NSaved= 2 IEnMin= 2 EnMin= -385.591438724892     IErMin= 2 ErrMin= 6.69D-06
 ErrMax= 6.69D-06  0.00D+00 EMaxC= 1.00D-01 BMatC= 1.04D-08 BMatP= 2.55D-08
 IDIUse=1 WtCom= 1.00D+00 WtEn= 0.00D+00
 Coeff-Com:  0.344D+00 0.656D+00
 Coeff:      0.344D+00 0.656D+00
 Gap=     0.213 Goal=   None    Shift=    0.000
 RMSDP=1.02D-06 MaxDP=1.99D-05 DE=-1.90D-08 OVMax= 5.93D-05

 Cycle  10  Pass 1  IDiag  1:
 RMSU=  1.01D-06    CP:  1.00D+00  1.01D+00
 E= -385.591438734379     Delta-E=       -0.000000009487 Rises=F Damp=F
 DIIS: error= 5.48D-06 at cycle   3 NSaved=   3.
 NSaved= 3 IEnMin= 3 EnMin= -385.591438734379     IErMin= 3 ErrMin= 5.48D-06
 ErrMax= 5.48D-06  0.00D+00 EMaxC= 1.00D-01 BMatC= 2.75D-09 BMatP= 1.04D-08
 IDIUse=1 WtCom= 1.00D+00 WtEn= 0.00D+00
 Coeff-Com: -0.215D-01 0.328D+00 0.693D+00
 Coeff:     -0.215D-01 0.328D+00 0.693D+00
 Gap=     0.213 Goal=   None    Shift=    0.000
 RMSDP=4.77D-07 MaxDP=9.80D-06 DE=-9.49D-09 OVMax= 4.89D-05

 Cycle  11  Pass 1  IDiag  1:
 RMSU=  3.35D-07    CP:  1.00D+00  1.04D+00  7.32D-01
 E= -385.591438738666     Delta-E=       -0.000000004287 Rises=F Damp=F
[...]
 212909,0.2204363,0.0002139,0.1013229,0.1362707,-0.0000101,0.0001639,-0
 .0000713,0.0488163,0.048663,-0.144803,-0.0001306,-0.137131,0.1012777,0
 .0001456,-0.0001278,0.0001494,-0.1173434,-0.1665999,0.1464705,0.000150
 6,0.2655813,0.0815526,-0.0001023,0.0001946,-0.0000571,0.0488157,0.0324
 628,-0.0761814,0.0000029,-0.0761816,-0.0932985,-0.0000409,0.0000038,-0
 .0000396,0.1032473,0.0315134,0.0746773,0.0000675,0.0636266,-0.093226,-
 0.00011,0.0000637,-0.0001154,0.1172494,-0.0920825,0.0474148,0.0001087,
 0.0104835,0.0513776,-0.000027,0.000094,-0.0000421,0.1087889,-0.1105767
 ,-0.0536551,0.0000835,-0.0426047,0.0488646,-0.0000067,0.0000876,-0.000
 0017,0.1172497,-0.035179,0.057452,0.0000877,0.094383,-0.0055252,-0.000
 087,0.000102,-0.0000691,0.1087887,0.0963942,-0.0600612,-0.0001473,0.19
 29434,-0.4953739,-0.0002096,-0.0000827,-0.0000889,-0.190588,-0.0476694
 ,-0.0014906,0.0000792,0.0468712,0.0765445,-0.0000438,0.0001137,-0.0000
 144,0.139187,0.4807839,-0.1070395,-0.0002847,-0.1070416,0.3040737,0.00
 01759,-0.0002654,0.0002037,-0.0486304,0.0811547,-0.0694452,-0.0000065,
 -0.0694445,-0.0334839,-0.0000227,-0.00002,-0.0000517,0.1208328,-0.3208
 135,-0.1514238,-0.0000044,-0.4044222,-0.0781677,0.0002275,-0.0000833,0
 .0001029,-0.190587,0.0039307,0.0894638,0.0000978,0.0411001,0.0249455,-
 0.0000635,0.0000782,-0.0000738,0.1391866\Polar=133.2543453,21.3704632,
 168.5327536,-0.0362888,0.0412963,35.2290118\Quadrupole=2.5703018,3.346
 2404,-5.9165423,0.4700729,-0.0036748,0.0032952\PG=C01 [X(C10H8)]\NImag
 =0\\0.66696729,0.00268990,0.67140927,-0.00024603,0.00020838,0.12618692
 ,-0.29761058,-0.03887260,0.00009627,0.64305548,0.05014803,-0.12385849,
 -0.00004941,-0.02441632,0.66602021,0.00013027,-0.00000900,-0.05429907,
 -0.00025357,0.00022587,0.10665871,-0.04852211,-0.01964364,0.00001639,-
 0.18879378,-0.12656542,0.00001508,0.67534587,-0.07899604,0.02523871,0.
 00004371,-0.00921105,-0.21199602,-0.00005812,-0.00641367,0.61280179,-0
 .00000671,0.00001729,0.00415310,0.00005962,-0.00000587,-0.04832958,-0.
 00025523,0.00019597,0.11292098,-0.19980202,0.13088003,0.00011701,-0.04
 392290,0.02301170,0.00003222,0.00654183,0.01354591,0.00000064,0.680689
 32,0.04185968,-0.22166795,-0.00008359,0.05378575,0.01946647,-0.0000200
 1,-0.01916395,-0.00805450,0.00000641,0.00664579,0.62838580,0.00008266,
 -0.00012424,-0.05429917,0.00004400,-0.00000595,0.00728313,-0.00001212,
 -0.00000759,-0.00382006,-0.00026001,0.00019730,0.10665875,-0.00356103,
 0.01020877,0.00000440,0.01677619,-0.02495603,-0.00001500,-0.13361040,0
 .05928951,0.00005717,0.00431935,-0.01280399,-0.00000783,0.54907563,0.0
 4179468,-0.00372079,-0.00001916,-0.08354734,-0.08312603,0.00000342,0.0
 8713093,-0.23013875,-0.00010722,-0.00608466,-0.01899012,-0.00000402,-0
 .02703072,0.68597911,0.00001675,-0.00000518,-0.00254753,-0.00003738,-0
 .00002270,0.00522971,0.00006810,-0.00009441,-0.05602058,-0.00000521,-0
 .00000036,-0.00200825,-0.00019120,0.00022310,0.14295463,0.04377512,-0.
 00281319,-0.00001935,0.00061827,0.00865666,0.00000157,0.00618452,-0.03
 040724,-0.00001403,-0.13593730,0.03441703,0.00005357,-0.02337053,0.030
 79748,0.00002496,0.64444741,0.05653904,-0.06705809,-0.00005325,-0.0240
 5327,-0.00213113,0.00001179,0.01449423,-0.00695009,-0.00000865,-0.0829
 3752,-0.26485109,-0.00004492,0.01484252,0.04403194,0.00000756,-0.03191
 905,0.64370261,0.00000377,-0.00002610,0.00415315,-0.00001149,-0.000003
 46,-0.00382008,0.00000277,0.00001152,-0.00006932,0.00000803,-0.0000991
 5,-0.04832994,0.00001898,0.00000057,0.00577364,-0.00025416,0.00021903,
 0.11292098,-0.02918540,0.02064266,0.00002027,-0.00027224,-0.00987425,-
 0.00000486,-0.00568695,0.04539359,0.00002223,0.01062432,-0.08862385,-0
 .00003679,-0.20929329,-0.00259955,0.00006133,-0.26291023,-0.01959268,0
 .00008639,0.65704834,-0.01094478,0.02190518,0.00001451,-0.01659135,-0.
 01439866,0.00000249,0.02943795,0.02634769,-0.00000592,-0.03003290,-0.0
 7697573,-0.00001824,0.05724138,-0.16419156,-0.00006104,-0.04743381,-0.
 10084208,0.00000357,0.06208606,0.57800469,0.00000774,-0.00000007,-0.00
 254746,-0.00000667,0.00000004,-0.00200824,0.00001634,-0.00001346,0.005
 77355,-0.00001403,0.00000916,0.00522981,0.00008475,-0.00003324,-0.0725
 6001,0.00007571,-0.00000909,-0.05602013,-0.00020997,0.00014016,0.14295
 478,-0.10905539,-0.10840046,-0.00000919,-0.01330639,-0.03111639,-0.000
 00293,-0.00478962,0.00151009,0.00000550,0.00956193,0.02129522,0.000006
 75,0.00012929,0.00115517,0.00000013,-0.00172402,0.00264568,0.00000454,
 -0.00052692,-0.00054053,-0.00000020,0.11931095,-0.10840049,-0.28800470
 ,-0.00004632,0.00241963,0.00145542,-0.00000301,0.00011529,0.00170619,-
 0.00000169,-0.01224079,-0.02141279,-0.00000509,0.00000114,-0.00001959,
 0.00000020,0.00404047,-0.00135946,-0.00000467,0.00061352,0.00063665,0.
 00000017,0.11314461,0.30609192,-0.00000913,-0.00004628,-0.03820120,0.0
 0000994,0.00001237,0.00642604,0.00000494,-0.00000245,0.00598739,-0.000
 00617,-0.00002035,0.00642606,-0.00000026,-0.00000025,-0.00053465,0.000
 00501,-0.00000414,0.00598740,0.00000030,0.00000081,-0.00053464,-0.0000
 0057,0.00005689,0.02309532,-0.01333460,0.03089335,0.00001946,-0.110167
 87,0.10952429,0.00007754,0.00998379,-0.02050183,-0.00001057,-0.0044715
 7,-0.00132698,0.00000391,-0.00223111,-0.00302222,0.00000231,-0.0004316
 1,-0.00142744,-0.00000043,0.00033157,-0.00017950,-0.00000027,0.0004607
 5,0.00013344,-0.00000179,0.11972527,-0.00238915,0.00152888,0.00000039,
 0.10988384,-0.29008963,-0.00014897,0.01243067,-0.02047071,-0.00001498,
 -0.00048360,0.00163677,-0.00000115,-0.00424554,-0.00195791,-0.00000104
 ,-0.00017474,-0.00003131,0.00000012,-0.00018758,0.00018876,0.00000022,
 -0.00009773,0.00148225,0.00000198,-0.11496358,0.30769226,0.00000682,-0
 .00001477,0.00336379,0.00007758,-0.00014883,-0.03193083,0.00000197,0.0
 0000001,0.00395179,0.00000421,-0.00000073,0.00523950,0.00000193,-0.000
 00159,0.00551998,0.00000007,0.00000067,-0.00015468,-0.00000029,0.00000
 018,-0.00013125,-0.00000189,0.00000188,-0.00358872,-0.00008882,0.00016
 210,0.02135562,0.00026576,-0.00378749,0.00000089,-0.01725696,0.0066192
 4,0.00001271,-0.32558065,0.05923462,0.00015318,0.00024284,0.00028580,0
 .00000009,-0.00634982,0.00141739,0.00000566,-0.00016043,-0.00041381,-0
 .00000004,0.00228117,0.00055178,0.00000138,-0.00102847,-0.00003949,0.0
 0000013,0.00103480,-0.00034834,-0.00000199,0.34592817,-0.00190879,-0.0
 0355863,-0.00000265,-0.02637423,0.00734104,0.00001262,0.06026792,-0.07
 263369,-0.00004160,0.00001839,0.00000919,-0.00000007,0.03312861,-0.005
 03570,-0.00001872,-0.00056223,-0.00045751,0.00000004,-0.00110414,-0.00
 367855,-0.00000283,-0.00112397,-0.00014493,0.00000074,-0.00031998,0.00
 087510,0.00000169,-0.06323047,0.07803996,0.00000156,-0.00000181,0.0055
 8555,0.00000039,-0.00000197,0.00537042,0.00015337,-0.00004173,-0.03455
 528,0.00000003,-0.00000013,0.00019426,0.00001797,-0.00000402,0.0050008
 1,-0.00000023,-0.00000011,0.00010559,0.00000084,-0.00000341,0.00492410
 ,-0.00000031,0.00000025,-0.00072880,-0.00000201,0.00000172,-0.00316305
 ,-0.00016991,0.00005016,0.02107248,-0.01848771,-0.00664262,0.00000744,
 0.00005046,0.00324886,0.00000362,0.00059302,0.00067102,-0.00000008,-0.
 32489730,-0.06735423,0.00010818,0.00042684,-0.00010895,-0.00000030,-0.
 00416752,0.00075018,0.00000400,0.00149934,-0.00116640,0.00000140,0.001
 05078,0.00038929,-0.00000197,-0.00104472,0.00002363,0.00000066,-0.0000
 8509,-0.00004812,-0.00000014,0.34440392,0.02663983,0.00668214,-0.00001
 091,0.00240547,-0.00288523,-0.00000423,-0.00058167,-0.00105595,-0.0000
 0009,-0.06771365,-0.07536051,0.00001430,-0.00010090,0.00009347,0.00000
 014,-0.03218239,-0.00631932,0.00001076,0.00005695,-0.00568843,-0.00000
 435,0.00062043,0.00089222,0.00000144,0.00111377,-0.00010591,-0.0000007
 0,0.00005805,0.00017173,0.00000018,0.07048666,0.08301371,0.00002026,0.
 00000429,0.00336376,0.00000333,-0.00000460,0.00523950,-0.00000056,-0.0
 0000071,-0.00015468,0.00010802,0.00001426,-0.03193067,-0.00000030,0.00
 000019,-0.00013124,-0.00000875,-0.00000446,0.00395175,0.00000193,-0.00
 000364,0.00551995,-0.00000188,0.00000155,-0.00358872,0.00000109,-0.000
 00020,0.00039343,-0.00000010,0.00000022,-0.00035726,-0.00012073,-0.000
 00854,0.02135552,0.00078756,-0.00147806,0.00000161,-0.00004544,-0.0002
 1958,0.00000003,0.00014204,-0.00031258,-0.00000013,0.00707186,-0.00629
 312,-0.00000320,-0.00099233,-0.00380611,0.00000119,-0.23380078,0.13602
 358,0.00014306,-0.02252807,0.01977504,0.00002021,0.00006823,-0.0002187
 5,-0.00000045,0.00006279,0.00007394,-0.00000017,-0.00008740,0.00015287
 ,-0.00000020,0.00126790,-0.00012757,-0.00000206,0.24867763,-0.00335679
 ,-0.00408049,-0.00000217,0.00004783,0.00029751,0.00000002,-0.00016414,
 -0.00075998,-0.00000026,0.02670038,-0.01698783,-0.00002078,-0.00215021
 ,-0.00040499,-0.00000103,0.13499028,-0.16441362,-0.00011140,-0.0119361
 7,0.01114249,0.00000782,0.00086574,-0.00124163,-0.00000060,0.00018011,
 0.00002385,0.00000007,0.00003041,0.00006387,0.00000026,-0.00015593,0.0
 0064198,0.00000153,-0.14350160,0.17529067,0.00000091,-0.00000309,0.005
 58554,0.00000018,0.00000026,0.00019426,-0.00000009,-0.00000035,0.00010
 559,0.00000954,-0.00000558,0.00537050,0.00000189,-0.00000017,0.0049241
 2,0.00014239,-0.00011205,-0.03455544,0.00000813,-0.00000637,0.00500083
 ,-0.00000003,-0.00000010,-0.00072882,-0.00000012,0.00000011,-0.0003572
 6,-0.00000024,0.00000020,-0.00064785,-0.00000209,0.00000152,-0.0031630
 2,-0.00015887,0.00012462,0.02107254,0.00377360,-0.00487176,-0.00000370
 ,0.00386274,0.00682793,0.00000304,0.01457354,-0.01140599,-0.00000667,-
 0.00399853,0.01315572,0.00000698,-0.19329771,-0.08998092,0.00002152,-0
 .01254365,-0.00677721,0.00000329,-0.04299703,0.00109010,0.00002263,-0.
 00000789,-0.00005674,-0.00000011,0.00035126,0.00084494,0.,0.00096812,0
 .00100889,-0.00000167,0.00001824,0.00010836,-0.00000007,-0.00125267,-0
 .00070594,0.00000048,0.79974898,0.01030722,-0.01841041,-0.00001192,0.0
 1978911,0.02317155,-0.00000140,-0.01831480,-0.09099543,-0.00002970,-0.
 00705705,0.04927681,0.00002231,-0.08135312,-0.13974854,0.00000400,-0.0
 3267786,-0.04570415,-0.00000260,0.03589253,0.02578022,-0.00001018,-0.0
 0079292,0.00037340,0.00000049,-0.00090178,-0.00085246,0.00000023,-0.00
 218230,0.00070762,0.00000237,-0.00032200,0.00122326,0.00000062,-0.0001
 3201,0.00013004,-0.00000008,-0.07044395,0.51817582,0.00000293,-0.00000
 511,-0.00024631,0.00000717,0.00000362,0.00463437,-0.00000932,-0.000032
 30,0.00854902,-0.00000127,0.00001348,0.00012459,0.00002512,0.00000824,
 -0.06247038,-0.00000711,-0.00001487,0.00004301,0.00003728,0.00000665,0
 .00862012,-0.00000034,0.00000020,-0.00013397,-0.00000064,-0.00000057,-
 0.00030388,-0.00000283,0.00000116,-0.00350821,-0.00000020,0.00000049,-
 0.00016046,0.00000068,0.00000021,0.00035246,-0.00032884,0.00018313,0.1
 0643081,-0.00070122,0.00034177,0.00000040,0.00090468,0.00009250,-0.000
 00054,0.00011834,0.00049634,-0.00000074,0.00042103,-0.00050245,-0.0000
 0040,-0.01052105,0.00749159,0.00000921,-0.00045974,0.00117319,0.000000
 84,-0.00144844,-0.00277675,0.00000068,0.00001638,-0.00001535,0.,-0.000
 01223,-0.00005827,0.,0.00036069,-0.00080928,-0.00000023,-0.00001864,-0
 .00004537,0.00000002,-0.00023339,-0.00017594,0.00000001,-0.35320047,0.
 03549723,0.00015681,0.37015461,0.00047684,0.00005235,-0.00000015,-0.00
 032447,-0.00063612,0.00000007,-0.00012559,0.00308291,0.00000199,-0.000
 20921,-0.00008455,0.00000008,-0.02063206,0.00784900,0.00001098,-0.0001
 2204,0.00140748,0.00000045,-0.00346741,-0.00498435,-0.00000147,0.00002
 301,0.00000195,-0.00000003,-0.00002425,-0.00003527,-0.00000002,0.00073
 623,-0.00035092,-0.00000069,0.00000332,-0.00001009,-0.00000003,-0.0004
 0475,-0.00011172,0.00000017,0.03448562,-0.06448782,-0.00002920,-0.0388
 0367,0.05550211,-0.00000007,0.,-0.00010186,-0.00000001,0.00000023,-0.0
 0041697,-0.00000115,0.00000095,-0.00198457,-0.00000012,0.00000008,-0.0
 0003055,-0.00000245,-0.00000080,0.00322002,0.00000011,-0.00000006,0.00
 046940,0.00000072,-0.00000160,0.00264647,0.00000002,0.,0.00004769,0.00
 000001,0.00000001,0.00002231,0.00000038,0.,0.00058362,0.00000004,-0.00
 000002,0.00005753,-0.00000008,0.00000004,-0.00005518,0.00015812,-0.000
 02987,-0.02603435,-0.00016973,0.00003112,0.01756184,0.01835883,-0.0074
 2403,-0.00001119,-0.01968589,-0.00782226,0.00000597,0.00559664,0.00967
 401,0.00000235,-0.00869728,0.00820596,0.00000704,0.03534421,-0.0091558
 6,-0.00001548,0.01141988,-0.00169413,-0.00000460,-0.02007790,-0.067730
 38,-0.00001202,-0.00079059,0.00037054,0.00000061,-0.00114399,-0.000752
 73,0.00000014,-0.00064617,0.00015359,0.00000023,-0.00024755,0.00086674
 ,0.00000036,-0.00050829,0.00071950,0.00000048,-0.17467688,0.05632393,0
 .00007016,-0.00495080,0.02490664,0.00001211,0.59327910,-0.00742368,0.0
 0610315,0.00000578,-0.00086375,-0.00837992,-0.00000304,-0.00650086,0.0
 1800558,0.00000830,0.00124795,-0.01936792,-0.00000808,-0.02198750,-0.0
 8353974,-0.00002383,0.01447974,0.01218204,-0.00000326,-0.05489902,-0.0
 2812038,0.00001191,0.00037053,-0.00017891,-0.00000035,0.00012682,-0.00
 015346,0.,0.00060572,0.00021228,0.,-0.00001283,-0.00104988,-0.00000026
 ,0.00026731,0.00007445,0.,0.11834023,-0.25485434,-0.00012073,-0.003603
 88,0.00565815,0.00000286,0.10555551,0.76751558,-0.00001107,0.00000587,
 0.00007614,0.00000839,0.00000015,-0.00007230,-0.00000387,0.00000168,0.
 00302675,0.00000438,-0.00001141,-0.00007233,-0.00002000,-0.00003179,0.
 00826619,0.00000213,0.00000445,0.00302668,-0.00000878,0.00001678,0.008
 26620,0.00000063,-0.00000035,0.00030615,0.00000045,0.00000037,-0.00022
 966,0.00000039,0.00000013,-0.00025325,0.,-0.00000070,-0.00022966,0.000
 00022,-0.00000019,-0.00025323,0.00009359,-0.00009285,-0.05771797,0.000
 00200,-0.00000995,0.00193320,-0.00017431,0.00018552,0.12556319,-0.0009
 2474,0.00054889,0.00000069,0.00063068,0.00038363,-0.00000024,0.0006658
 6,0.00003421,-0.00000025,-0.00012745,-0.00107933,-0.00000049,-0.002110
 71,0.00355057,0.00000401,0.00098719,-0.00073321,-0.00000076,-0.0063817
 6,-0.00086223,0.00000462,-0.00000909,-0.00000767,-0.00000006,0.0000405
 6,0.00006353,0.00000005,0.00000828,-0.00002570,0.00000001,-0.00003976,
 -0.00013292,0.00000002,0.00000787,0.00003078,0.00000005,0.01301766,0.0
 1383560,0.00000174,0.00016975,-0.00098320,-0.00000139,-0.11535067,-0.1
 1336744,-0.00000616,0.10967488,0.00054889,-0.00001859,-0.00000030,-0.0
 0045357,-0.00070170,0.,-0.00099844,0.00041028,0.00000062,-0.00024213,0
 .00005641,0.00000023,0.00266310,-0.00416290,-0.00000410,0.00029948,0.0
 0008894,-0.00000005,0.00002513,0.00010820,-0.00000151,-0.00000767,-0.0
 0002175,0.00000005,-0.00006662,-0.00009703,-0.00000005,0.00003112,0.00
 001207,-0.00000003,-0.00000276,-0.00001671,-0.00000005,-0.00002603,0.0
 0001247,-0.00000001,-0.01477456,-0.01113056,0.00000015,0.00049972,0.00
 053716,0.00000075,-0.11336727,-0.30249598,-0.00004748,0.12411762,0.314
 56702,0.00000063,-0.00000044,0.00012285,-0.00000039,-0.00000002,-0.000
 25309,-0.00000063,-0.00000030,-0.00004651,-0.00000004,0.00000096,-0.00
 025309,0.00000341,-0.00000406,0.00411689,-0.00000069,0.00000012,-0.000
 04653,0.00000543,-0.00000102,0.00411704,-0.00000007,0.00000005,-0.0001
 5023,0.00000002,-0.00000011,0.00011582,0.00000005,-0.00000002,0.000079
 60,0.00000006,0.00000002,0.00011583,0.00000001,-0.00000004,0.00007960,
 -0.00000858,-0.00001203,0.00529605,-0.00000081,0.00000141,-0.00212515,
 -0.00000709,-0.00004929,-0.03585211,0.00000637,0.00005287,0.02151219,-
 0.01208846,-0.00278657,0.00000420,0.02469387,0.01662646,-0.00000463,-0
 .01289675,-0.03296959,-0.00000661,0.00227975,0.01848383,0.00000830,-0.
 02024748,0.05467154,0.00003403,-0.03362617,-0.05809964,-0.00000296,-0.
 07733255,0.01436502,0.00001183,0.00063603,-0.00026145,-0.00000046,0.00
 083984,0.00035613,-0.00000030,-0.00001887,0.00088635,0.00000042,-0.000
 33679,-0.00146967,-0.00000057,0.00138918,-0.00183478,-0.00000306,-0.04
 953051,0.04304116,0.00004505,-0.00036853,0.00315620,0.00000238,-0.3081
 2364,-0.05381730,0.00009911,-0.00088416,0.00236091,0.00000384,0.701455
 58,-0.01796445,-0.00254754,0.00000719,0.03683864,0.02058397,-0.0000086
 8,-0.00706876,-0.04535104,-0.00001395,0.00552133,0.02475507,0.00000542
 ,0.01986741,0.00302989,-0.00001113,-0.05119016,-0.04279681,0.00000412,
 0.00573916,-0.25570574,-0.00007853,0.00047475,-0.00027053,-0.00000031,
 0.00078652,0.00040163,-0.00000012,0.00031245,-0.00110378,-0.00000082,0
 .00027702,-0.00016440,-0.00000015,0.00135648,0.00028645,0.00000062,0.0
 2542974,0.00698574,-0.00001460,0.00139065,-0.00408107,-0.00000352,0.00
 819825,-0.12141725,-0.00002644,-0.02624917,0.00277142,0.00001146,-0.15
 158582,0.61647133,-0.00000199,0.00000068,-0.00024633,0.00000324,0.0000
 0025,0.00012458,0.00000310,-0.00000237,0.00004300,0.00000335,-0.000001
 46,0.00463443,0.00002072,-0.00002724,0.00862026,0.,0.00000751,0.008549
 04,0.00000870,-0.00008166,-0.06247116,-0.00000018,0.00000007,-0.000133
 97,-0.00000015,0.00000005,-0.00016045,0.00000029,-0.00000097,0.0003524
 6,0.00000012,0.00000071,-0.00030387,-0.00000171,0.00000231,-0.00350825
 ,0.00003718,-0.00002150,0.01345501,0.00000197,-0.00000391,0.00306997,0
 .00012294,0.00000163,-0.05771712,-0.00000729,-0.00000222,0.00529604,-0
 .00033496,0.00026378,0.10643088,-0.00065489,0.00051506,0.00000045,0.00
 046969,-0.00016904,-0.00000029,0.00013480,0.00036868,0.00000033,0.0001
 0213,-0.00098688,-0.00000062,-0.00048604,-0.00267303,0.00000035,0.0016
 9959,0.00117952,-0.00000124,0.00685605,-0.00628871,-0.00000414,0.00000
 404,0.00001282,0.00000003,0.00000709,0.00002456,0.00000003,0.00012405,
 -0.00010971,-0.00000013,0.00001458,-0.00000212,0.,-0.00002669,0.000416
 47,0.00000044,-0.00480881,-0.00050897,0.00000360,-0.00023098,0.0013088
 0,0.00000108,-0.00909900,0.02148244,0.00001289,0.00062562,-0.00060690,
 -0.00000152,-0.21584036,0.14786597,0.00014466,0.22110913,0.00038005,0.
 00000601,-0.00000013,-0.00046232,-0.00013324,0.00000018,0.00166395,0.0
 0081298,-0.00000062,-0.00056996,0.00016647,0.00000049,-0.00198236,-0.0
 0594678,-0.00000244,0.00180157,0.00150164,0.00000050,0.02183504,-0.009
 52842,-0.00001474,-0.00002554,0.00001429,0.,-0.00002414,-0.00003582,-0
 .00000002,0.00011910,-0.00046917,-0.00000022,-0.00003614,-0.00006208,-
 0.00000002,-0.00112905,0.00003648,0.00000030,-0.00227444,0.00035925,0.
 00000006,-0.00019204,0.00069080,-0.00000014,-0.00702800,0.00980654,0.0
 0000621,0.00087601,0.00008126,0.00000044,0.14887722,-0.20184733,-0.000
 13566,-0.16182895,0.20454711,0.00000070,-0.00000041,-0.00010186,-0.000
 00061,0.00000002,-0.00003055,0.00000093,-0.00000004,0.00046941,-0.0000
 0058,0.00000112,-0.00041696,0.00000069,-0.00000197,0.00264638,-0.00000
 120,0.00000048,-0.00198453,0.00000714,-0.00000224,0.00322004,0.0000000
 1,-0.00000002,0.00004769,0.,-0.00000005,0.00005753,-0.00000004,-0.0000
 0010,-0.00005518,0.,-0.00000002,0.00002231,-0.00000016,-0.00000040,0.0
 0058362,0.00000280,-0.00000102,0.00307010,0.00000049,-0.00000081,0.001
 13658,0.00000228,-0.00000717,0.00193312,-0.00000093,0.00000110,-0.0021
 2520,0.00014440,-0.00013432,-0.02603449,-0.00015592,0.00014584,0.01756
 200\\-0.00002783,-0.00005900,-0.00000015,-0.00009671,0.00000385,0.0000
 0010,-0.00000696,0.00009041,-0.00000001,0.00006412,-0.00007278,0.00000
 007,-0.00017170,0.00003813,-0.00000371,0.00007527,0.00005365,-0.000000
 11,0.00013758,-0.00011107,-0.00000018,0.00001102,0.00002332,0.00000008
 ,0.00003218,0.00001310,0.00000002,-0.00001546,-0.00002618,0.00000015,-
 0.00001041,0.00003326,0.00000007,-0.00001044,-0.00002881,-0.00000008,0
 .00000013,-0.00004019,0.00000587,-0.00003077,0.00004323,0.00000027,0.0
 0001107,0.00002824,-0.00000695,0.00001475,0.00003040,0.00000045,-0.000
 02810,-0.00002290,0.00000388,0.00005226,0.00000331,0.00000026\\\@
 The archive entry for this job was punched.


 DEPRESSION IS WAITING FOR YOUR SHIP TO COME IN,
 AND FINDING OUT IT'S THE TITANIC.
 Job cpu time:       0 days  0 hours 55 minutes  8.5 seconds.
 Elapsed time:       0 days  0 hours  1 minutes 46.9 seconds.
 File lengths (MBytes):  RWF=    215 Int=      0 D2E=      0 Chk=      7 Scr=      1
 Normal termination of Gaussian 16 at Fri Apr 26 12:01:51 2024.
