 Entering Gaussian System, Link 0=g16
 Input=Naphthalene_test.gjf
 Output=Naphthalene_test.log
 Initial command:
 /apps/gaussian/g16-c01-avx2/g16/l1.exe "/var/tmp/pbs.9214671.pbs/Gau-3744555.inp" -scrdir="/var/tmp/pbs.9214671.pbs/"
 Entering Link 1 = /apps/gaussian/g16-c01-avx2/g16/l1.exe PID=   3744556.
  
 Copyright (c) 1988-2019, Gaussian, Inc.  All Rights Reserved.
  
 This is part of the Gaussian(R) 16 program.  It is based on
 the Gaussian(R) 09 system (copyright 2009, Gaussian, Inc.),
 the Gaussian(R) 03 system (copyright 2003, Gaussian, Inc.),
 the Gaussian(R) 98 system (copyright 1998, Gaussian, Inc.),
 the Gaussian(R) 94 system (copyright 1995, Gaussian, Inc.),
 the Gaussian 92(TM) system (copyright 1992, Gaussian, Inc.),
 the Gaussian 90(TM) system (copyright 1990, Gaussian, Inc.),
 the Gaussian 88(TM) system (copyright 1988, Gaussian, Inc.),
 the Gaussian 86(TM) system (copyright 1986, Carnegie Mellon
 University), and the Gaussian 82(TM) system (copyright 1983,
 Carnegie Mellon University). Gaussian is a federally registered
 trademark of Gaussian, Inc.
  
 This software contains proprietary and confidential information,
 including trade secrets, belonging to Gaussian, Inc.
  
 This software is provided under written license and may be
 used, copied, transmitted, or stored only in accord with that
 written license.
  
 The following legend is applicable only to US Government
 contracts under FAR:
  
                    RESTRICTED RIGHTS LEGEND
  
 Use, reproduction and disclosure by the US Government is
 subject to restrictions as set forth in subparagraphs (a)
 and (c) of the Commercial Computer Software - Restricted
 Rights clause in FAR 52.227-19.
  
 Gaussian, Inc.
 340 Quinnipiac St., Bldg. 40, Wallingford CT 06492
  
  
 ---------------------------------------------------------------
 Warning -- This program may not be used in any manner that
 competes with the business of Gaussian, Inc. or will provide
 assistance to any competitor of Gaussian, Inc.  The licensee
 of this program is prohibited from giving any competitor of
 Gaussian, Inc. access to this program.  By using this program,
 the user acknowledges that Gaussian, Inc. is engaged in the
 business of creating and licensing software in the field of
 computational chemistry and represents and warrants to the
 licensee that it is not a competitor of Gaussian, Inc. and that
 it will not use this program in any manner prohibited above.
 ---------------------------------------------------------------
  

 Cite this work as:
 Gaussian 16, Revision C.01,
 M. J. Frisch, G. W. Trucks, H. B. Schlegel, G. E. Scuseria, 
 M. A. Robb, J. R. Cheeseman, G. Scalmani, V. Barone, 
 G. A. Petersson, H. Nakatsuji, X. Li, M. Caricato, A. V. Marenich, 
 J. Bloino, B. G. Janesko, R. Gomperts, B. Mennucci, H. P. Hratchian, 
 J. V. Ortiz, A. F. Izmaylov, J. L. Sonnenberg, D. Williams-Young, 
 F. Ding, F. Lipparini, F. Egidi, J. Goings, B. Peng, A. Petrone, 
 T. Henderson, D. Ranasinghe, V. G. Zakrzewski, J. Gao, N. Rega, 
 G. Zheng, W. Liang, M. Hada, M. Ehara, K. Toyota, R. Fukuda, 
 J. Hasegawa, M. Ishida, T. Nakajima, Y. Honda, O. Kitao, H. Nakai, 
 T. Vreven, K. Throssell, J. A. Montgomery, Jr., J. E. Peralta, 
 F. Ogliaro, M. J. Bearpark, J. J. Heyd, E. N. Brothers, K. N. Kudin, 
 V. N. Staroverov, T. A. Keith, R. Kobayashi, J. Normand, 
 K. Raghavachari, A. P. Rendell, J. C. Burant, S. S. Iyengar, 
 J. Tomasi, M. Cossi, J. M. Millam, M. Klene, C. Adamo, R. Cammi, 
 J. W. Ochterski, R. L. Martin, K. Morokuma, O. Farkas, 
 J. B. Foresman, and D. J. Fox, Gaussian, Inc., Wallingford CT, 2019.
 
 ******************************************
 Gaussian 16:  ES64L-G16RevC.01  3-Jul-2019
                 9-Apr-2024 
 ******************************************
 %mem=500GB
 %nprocshared=32
 Will use up to   32 processors via shared memory.
 %chk=Naphthalene_n_1-1.chk
 --------------------------------------------
 #p opt freq b3lyp/def2tzvp geom=connectivity
 --------------------------------------------
 1/18=20,19=15,26=3,38=1,57=2/1,3;
 2/9=110,12=2,17=6,18=5,40=1/2;
 3/5=44,7=101,11=2,25=1,30=1,71=1,74=-5/1,2,3;
 4//1;
 5/5=2,38=5/2;
 6/7=2,8=2,9=2,10=2,28=1/1;
 7//1,2,3,16;
 1/18=20,19=15,26=3/3(2);
 2/9=110/2;
 99//99;
 2/9=110/2;
 3/5=44,7=101,11=2,25=1,30=1,71=1,74=-5/1,2,3;
 4/5=5,16=3,69=1/1;
 5/5=2,38=5/2;
 7//1,2,3,16;
 1/18=20,19=15,26=3/3(-5);
 2/9=110/2;
 6/7=2,8=2,9=2,10=2,19=2,28=1/1;
 99/9=1/99;
 Leave Link    1 at Tue Apr  9 18:05:22 2024, MaxMem= 67108864000 cpu:               2.0 elap:               0.1
 (Enter /apps/gaussian/g16-c01-avx2/g16/l101.exe)
 ----------------------------------------------------------------------
 Ground state optimization and frequency calculation for neutral naphth
 alene.
 ----------------------------------------------------------------------
 Symbolic Z-matrix:
 Charge =  0 Multiplicity = 1
 C                    -4.05902  -0.74403   0.00026 
 C                    -2.68622  -0.74403   0.00026 
 C                    -1.96428   0.4811    0.00026 
 C                    -2.68215   1.70496   0.00063 
 C                    -4.10357   1.67559   0.00079 
 C                    -4.77507   0.47761   0.0005 
 H                     0.00479  -0.44387   0.00002 
 H                    -4.61975  -1.69037   0.00018 
 H                    -2.12143  -1.68835   0.00004 
 C                    -0.54255   0.51064   0. 
 C                    -1.9594    2.92969   0.00075 
 H                    -4.65081   2.63004   0.00087 
 H                    -5.87471   0.45125   0.0006 
 C                    -0.58654   2.92976   0.00048 
 C                     0.12947   1.70786   0.00002 
 H                    -2.52386   3.87423   0.00101 
 H                    -0.02585   3.87609   0.0003 
 H                     1.2291    1.73433  -0.00017 
 
 ITRead=  0  0  0  0  0  0  0  0  0  0  0  0  0  0  0  0  0  0
 MicOpt= -1 -1 -1 -1 -1 -1 -1 -1 -1 -1 -1 -1 -1 -1 -1 -1 -1 -1
 NAtoms=     18 NQM=       18 NQMF=       0 NMMI=      0 NMMIF=      0
                NMic=       0 NMicF=      0.
                    Isotopes and Nuclear Properties:
 (Nuclear quadrupole moments (NQMom) in fm**2, nuclear magnetic moments (NMagM)
  in nuclear magnetons)

  Atom         1           2           3           4           5           6           7           8           9          10
 IAtWgt=          12          12          12          12          12          12           1           1           1          12
 AtmWgt=  12.0000000  12.0000000  12.0000000  12.0000000  12.0000000  12.0000000   1.0078250   1.0078250   1.0078250  12.0000000
 NucSpn=           0           0           0           0           0           0           1           1           1           0
 AtZEff=  -0.0000000  -0.0000000  -0.0000000  -0.0000000  -0.0000000  -0.0000000  -0.0000000  -0.0000000  -0.0000000  -0.0000000
 NQMom=    0.0000000   0.0000000   0.0000000   0.0000000   0.0000000   0.0000000   0.0000000   0.0000000   0.0000000   0.0000000
 NMagM=    0.0000000   0.0000000   0.0000000   0.0000000   0.0000000   0.0000000   2.7928460   2.7928460   2.7928460   0.0000000
 AtZNuc=   6.0000000   6.0000000   6.0000000   6.0000000   6.0000000   6.0000000   1.0000000   1.0000000   1.0000000   6.0000000

  Atom        11          12          13          14          15          16          17          18
 IAtWgt=          12           1           1          12          12           1           1           1
 AtmWgt=  12.0000000   1.0078250   1.0078250  12.0000000  12.0000000   1.0078250   1.0078250   1.0078250
 NucSpn=           0           1           1           0           0           1           1           1
 AtZEff=  -0.0000000  -0.0000000  -0.0000000  -0.0000000  -0.0000000  -0.0000000  -0.0000000  -0.0000000
 NQMom=    0.0000000   0.0000000   0.0000000   0.0000000   0.0000000   0.0000000   0.0000000   0.0000000
 NMagM=    0.0000000   2.7928460   2.7928460   0.0000000   0.0000000   2.7928460   2.7928460   2.7928460
 AtZNuc=   6.0000000   1.0000000   1.0000000   6.0000000   6.0000000   1.0000000   1.0000000   1.0000000
 Leave Link  101 at Tue Apr  9 18:05:22 2024, MaxMem= 67108864000 cpu:               6.8 elap:               0.2
 (Enter /apps/gaussian/g16-c01-avx2/g16/l103.exe)

 GradGradGradGradGradGradGradGradGradGradGradGradGradGradGradGradGradGrad
 Berny optimization.
 Initialization pass.
                           ----------------------------
                           !    Initial Parameters    !
                           ! (Angstroms and Degrees)  !
 --------------------------                            --------------------------
 ! Name  Definition              Value          Derivative Info.                !
 --------------------------------------------------------------------------------
 ! R1    R(1,2)                  1.3728         estimate D2E/DX2                !
 ! R2    R(1,6)                  1.416          estimate D2E/DX2                !
 ! R3    R(1,8)                  1.1            estimate D2E/DX2                !
 ! R4    R(2,3)                  1.422          estimate D2E/DX2                !
 ! R5    R(2,9)                  1.1003         estimate D2E/DX2                !
 ! R6    R(3,4)                  1.4189         estimate D2E/DX2                !
 ! R7    R(3,10)                 1.422          estimate D2E/DX2                !
 ! R8    R(4,5)                  1.4217         estimate D2E/DX2                !
 ! R9    R(4,11)                 1.4221         estimate D2E/DX2                !
 ! R10   R(5,6)                  1.3733         estimate D2E/DX2                !
 ! R11   R(5,12)                 1.1002         estimate D2E/DX2                !
 ! R12   R(6,13)                 1.1            estimate D2E/DX2                !
 ! R13   R(7,10)                 1.1003         estimate D2E/DX2                !
 ! R14   R(10,15)                1.3729         estimate D2E/DX2                !
 ! R15   R(11,14)                1.3729         estimate D2E/DX2                !
 ! R16   R(11,16)                1.1003         estimate D2E/DX2                !
 ! R17   R(14,15)                1.4162         estimate D2E/DX2                !
 ! R18   R(14,17)                1.1            estimate D2E/DX2                !
 ! R19   R(15,18)                1.0999         estimate D2E/DX2                !
 ! A1    A(2,1,6)              120.3763         estimate D2E/DX2                !
 ! A2    A(2,1,8)              120.6477         estimate D2E/DX2                !
 ! A3    A(6,1,8)              118.976          estimate D2E/DX2                !
 ! A4    A(1,2,3)              120.5099         estimate D2E/DX2                !
 ! A5    A(1,2,9)              120.8832         estimate D2E/DX2                !
 ! A6    A(3,2,9)              118.6069         estimate D2E/DX2                !
 ! A7    A(2,3,4)              119.0959         estimate D2E/DX2                !
 ! A8    A(2,3,10)             121.7004         estimate D2E/DX2                !
 ! A9    A(4,3,10)             119.2037         estimate D2E/DX2                !
 ! A10   A(3,4,5)              119.2103         estimate D2E/DX2                !
 ! A11   A(3,4,11)             119.0596         estimate D2E/DX2                !
 ! A12   A(5,4,11)             121.73           estimate D2E/DX2                !
 ! A13   A(4,5,6)              120.4559         estimate D2E/DX2                !
 ! A14   A(4,5,12)             118.6441         estimate D2E/DX2                !
 ! A15   A(6,5,12)             120.8999         estimate D2E/DX2                !
 ! A16   A(1,6,5)              120.3516         estimate D2E/DX2                !
 ! A17   A(1,6,13)             119.0027         estimate D2E/DX2                !
 ! A18   A(5,6,13)             120.6457         estimate D2E/DX2                !
 ! A19   A(3,10,7)             118.6409         estimate D2E/DX2                !
 ! A20   A(3,10,15)            120.4968         estimate D2E/DX2                !
 ! A21   A(7,10,15)            120.8623         estimate D2E/DX2                !
 ! A22   A(4,11,14)            120.5491         estimate D2E/DX2                !
 ! A23   A(4,11,16)            118.5913         estimate D2E/DX2                !
 ! A24   A(14,11,16)           120.8596         estimate D2E/DX2                !
 ! A25   A(11,14,15)           120.3669         estimate D2E/DX2                !
 ! A26   A(11,14,17)           120.6492         estimate D2E/DX2                !
 ! A27   A(15,14,17)           118.9839         estimate D2E/DX2                !
 ! A28   A(10,15,14)           120.3239         estimate D2E/DX2                !
 ! A29   A(10,15,18)           120.685          estimate D2E/DX2                !
 ! A30   A(14,15,18)           118.991          estimate D2E/DX2                !
 ! D1    D(6,1,2,3)             -0.011          estimate D2E/DX2                !
 ! D2    D(6,1,2,9)           -179.9971         estimate D2E/DX2                !
 ! D3    D(8,1,2,3)            179.9952         estimate D2E/DX2                !
 ! D4    D(8,1,2,9)              0.009          estimate D2E/DX2                !
 ! D5    D(2,1,6,5)             -0.0029         estimate D2E/DX2                !
 ! D6    D(2,1,6,13)          -179.9936         estimate D2E/DX2                !
 ! D7    D(8,1,6,5)            179.991          estimate D2E/DX2                !
 ! D8    D(8,1,6,13)             0.0003         estimate D2E/DX2                !
 ! D9    D(1,2,3,4)              0.0171         estimate D2E/DX2                !
 ! D10   D(1,2,3,10)          -179.9875         estimate D2E/DX2                !
 ! D11   D(9,2,3,4)           -179.9964         estimate D2E/DX2                !
 ! D12   D(9,2,3,10)            -0.0011         estimate D2E/DX2                !
 ! D13   D(2,3,4,5)             -0.0096         estimate D2E/DX2                !
 ! D14   D(2,3,4,11)           179.9947         estimate D2E/DX2                !
 ! D15   D(10,3,4,5)           179.995          estimate D2E/DX2                !
 ! D16   D(10,3,4,11)           -0.0008         estimate D2E/DX2                !
 ! D17   D(2,3,10,7)            -0.0135         estimate D2E/DX2                !
 ! D18   D(2,3,10,15)         -179.9995         estimate D2E/DX2                !
 ! D19   D(4,3,10,7)           179.9818         estimate D2E/DX2                !
 ! D20   D(4,3,10,15)           -0.0042         estimate D2E/DX2                !
 ! D21   D(3,4,5,6)             -0.004          estimate D2E/DX2                !
 ! D22   D(3,4,5,12)          -179.9878         estimate D2E/DX2                !
 ! D23   D(11,4,5,6)           179.9916         estimate D2E/DX2                !
 ! D24   D(11,4,5,12)            0.0078         estimate D2E/DX2                !
 ! D25   D(3,4,11,14)            0.0014         estimate D2E/DX2                !
 ! D26   D(3,4,11,16)          179.9984         estimate D2E/DX2                !
 ! D27   D(5,4,11,14)         -179.9942         estimate D2E/DX2                !
 ! D28   D(5,4,11,16)            0.0027         estimate D2E/DX2                !
 ! D29   D(4,5,6,1)              0.0104         estimate D2E/DX2                !
 ! D30   D(4,5,6,13)          -179.999          estimate D2E/DX2                !
 ! D31   D(12,5,6,1)           179.9938         estimate D2E/DX2                !
 ! D32   D(12,5,6,13)           -0.0156         estimate D2E/DX2                !
 ! D33   D(3,10,15,14)           0.0084         estimate D2E/DX2                !
 ! D34   D(3,10,15,18)         179.9987         estimate D2E/DX2                !
 ! D35   D(7,10,15,14)        -179.9773         estimate D2E/DX2                !
 ! D36   D(7,10,15,18)           0.013          estimate D2E/DX2                !
 ! D37   D(4,11,14,15)           0.0027         estimate D2E/DX2                !
 ! D38   D(4,11,14,17)         179.9839         estimate D2E/DX2                !
 ! D39   D(16,11,14,15)       -179.9941         estimate D2E/DX2                !
 ! D40   D(16,11,14,17)         -0.013          estimate D2E/DX2                !
 ! D41   D(11,14,15,10)         -0.0078         estimate D2E/DX2                !
 ! D42   D(11,14,15,18)       -179.9982         estimate D2E/DX2                !
 ! D43   D(17,14,15,10)       -179.9892         estimate D2E/DX2                !
 ! D44   D(17,14,15,18)          0.0203         estimate D2E/DX2                !
 --------------------------------------------------------------------------------
 Trust Radius=3.00D-01 FncErr=1.00D-07 GrdErr=1.00D-06 EigMax=2.50D+02 EigMin=1.00D-04
 Number of steps in this run=    103 maximum allowed number of steps=    108.
 GradGradGradGradGradGradGradGradGradGradGradGradGradGradGradGradGradGrad

 Leave Link  103 at Tue Apr  9 18:05:22 2024, MaxMem= 67108864000 cpu:               0.4 elap:               0.0
 (Enter /apps/gaussian/g16-c01-avx2/g16/l202.exe)
                          Input orientation:                          
 ---------------------------------------------------------------------
 Center     Atomic      Atomic             Coordinates (Angstroms)
 Number     Number       Type             X           Y           Z
 ---------------------------------------------------------------------
      1          6           0       -4.059019   -0.744026    0.000263
      2          6           0       -2.686218   -0.744026    0.000263
      3          6           0       -1.964280    0.481095    0.000263
      4          6           0       -2.682150    1.704961    0.000633
      5          6           0       -4.103566    1.675588    0.000787
      6          6           0       -4.775071    0.477613    0.000497
      7          1           0        0.004793   -0.443870    0.000020
      8          1           0       -4.619750   -1.690372    0.000183
      9          1           0       -2.121429   -1.688348    0.000035
     10          6           0       -0.542553    0.510638    0.000000
     11          6           0       -1.959400    2.929687    0.000748
     12          1           0       -4.650807    2.630044    0.000869
     13          1           0       -5.874708    0.451246    0.000599
     14          6           0       -0.586539    2.929755    0.000475
     15          6           0        0.129473    1.707863    0.000016
     16          1           0       -2.523856    3.874228    0.001008
     17          1           0       -0.025847    3.876086    0.000297
     18          1           0        1.229101    1.734328   -0.000166
 ---------------------------------------------------------------------
                    Distance matrix (angstroms):
                    1          2          3          4          5
     1  C    0.000000
     2  C    1.372801   0.000000
     3  C    2.426696   1.422011   0.000000
     4  C    2.809503   2.448990   1.418868   0.000000
     5  C    2.420024   2.804177   2.450175   1.421719   0.000000
     6  C    1.416027   2.419857   2.810793   2.426253   1.373340
     7  H    4.074882   2.707699   2.175502   3.440514   4.622847
     8  H    1.099995   2.152700   3.430275   3.909294   3.405310
     9  H    2.155458   1.100332   2.175127   3.439325   3.904476
    10  C    3.733593   2.483844   1.422034   2.450364   3.746722
    11  C    4.231379   3.744921   2.448597   1.422083   2.483991
    12  H    3.425575   3.904351   3.440263   2.175176   1.100209
    13  H    2.173799   3.405164   3.910542   3.429902   2.153127
    14  C    5.055174   4.231468   2.809645   2.427284   3.733954
    15  C    4.853373   3.733614   2.426677   2.811625   4.233162
    16  H    4.866723   4.621107   3.438965   2.175035   2.707305
    17  H    6.132855   5.331323   3.909410   3.430704   4.633571
    18  H    5.840073   4.633785   3.430492   3.911361   5.332991
                    6          7          8          9         10
     6  C    0.000000
     7  H    4.867877   0.000000
     8  H    2.173542   4.789589   0.000000
     9  H    3.425376   2.463645   2.498322   0.000000
    10  C    4.232647   1.100306   4.633355   2.707100   0.000000
    11  C    3.733721   3.903709   5.331267   4.620877   2.803436
    12  H    2.156015   5.578849   4.320528   5.004624   4.622730
    13  H    1.099953   5.947249   2.482226   4.320297   5.332486
    14  C    4.853535   3.425058   6.132892   4.866494   2.419517
    15  C    5.056488   2.155342   5.839788   4.074409   1.372941
    16  H    4.074919   5.004002   5.946221   5.577114   3.903755
    17  H    5.839927   4.320065   7.217299   5.945956   3.404883
    18  H    6.134282   2.498695   6.777730   4.789652   2.153178
                   11         12         13         14         15
    11  C    0.000000
    12  H    2.708036   0.000000
    13  H    4.633822   2.499019   0.000000
    14  C    1.372861   4.075304   5.840183   0.000000
    15  C    2.419968   4.868418   6.134271   1.416225   0.000000
    16  H    1.100349   2.464125   4.790096   2.155279   3.425389
    17  H    2.152742   4.789872   6.777810   1.099963   2.173779
    18  H    3.405205   5.947741   7.218754   2.173843   1.099946
                   16         17         18
    16  H    0.000000
    17  H    2.498010   0.000000
    18  H    4.320169   2.482342   0.000000
 Stoichiometry    C10H8
 Framework group  C1[X(C10H8)]
 Deg. of freedom    48
 Full point group                 C1      NOp   1
 Largest Abelian subgroup         C1      NOp   1
 Largest concise Abelian subgroup C1      NOp   1
                         Standard orientation:                         
 ---------------------------------------------------------------------
 Center     Atomic      Atomic             Coordinates (Angstroms)
 Number     Number       Type             X           Y           Z
 ---------------------------------------------------------------------
      1          6           0        2.426104   -0.708815    0.000060
      2          6           0        1.241200   -1.402057   -0.000132
      3          6           0       -0.000592   -0.709186   -0.000027
      4          6           0        0.000990    0.709681   -0.000089
      5          6           0        1.242689    1.402120   -0.000049
      6          6           0        2.427242    0.707212    0.000133
      7          1           0       -1.233064   -2.501900   -0.000215
      8          1           0        3.387976   -1.242474    0.000059
      9          1           0        1.230581   -2.502338   -0.000143
     10          6           0       -1.242645   -1.401635    0.000042
     11          6           0       -1.241303    1.401800   -0.000099
     12          1           0        1.233044    2.502286    0.000106
     13          1           0        3.389685    1.239752    0.000180
     14          6           0       -2.426293    0.708587   -0.000018
     15          6           0       -2.427269   -0.707638    0.000134
     16          1           0       -1.231082    2.502102   -0.000121
     17          1           0       -3.388124    1.242252    0.000241
     18          1           0       -3.389754   -1.240089    0.000166
 ---------------------------------------------------------------------
 Rotational constants (GHZ):           3.1209900           1.2352643           0.8849914
 Leave Link  202 at Tue Apr  9 18:05:22 2024, MaxMem= 67108864000 cpu:               0.2 elap:               0.0
 (Enter /apps/gaussian/g16-c01-avx2/g16/l301.exe)
 Standard basis: def2TZVP (5D, 7F)
 Ernie: Thresh=  0.10000D-02 Tol=  0.10000D-05 Strict=F.
 There are   408 symmetry adapted cartesian basis functions of A   symmetry.
 There are   358 symmetry adapted basis functions of A   symmetry.
   358 basis functions,   574 primitive gaussians,   408 cartesian basis functions
    34 alpha electrons       34 beta electrons
       nuclear repulsion energy       457.5564693960 Hartrees.
 IExCor=  402 DFT=T Ex+Corr=B3LYP ExCW=0 ScaHFX=  0.200000
 ScaDFX=  0.800000  0.720000  1.000000  0.810000 ScalE2=  1.000000  1.000000
 IRadAn=      5 IRanWt=     -1 IRanGd=            0 ICorTp=0 IEmpDi=  4
 NAtoms=   18 NActive=   18 NUniq=   18 SFac= 1.00D+00 NAtFMM=   60 NAOKFM=F Big=F
 Integral buffers will be    131072 words long.
 Raffenetti 2 integral format.
 Two-electron integral symmetry is turned on.
 Leave Link  301 at Tue Apr  9 18:05:22 2024, MaxMem= 67108864000 cpu:               1.0 elap:               0.0
 (Enter /apps/gaussian/g16-c01-avx2/g16/l302.exe)
 NPDir=0 NMtPBC=     1 NCelOv=     1 NCel=       1 NClECP=     1 NCelD=      1
         NCelK=      1 NCelE2=     1 NClLst=     1 CellRange=     0.0.
 One-electron integrals computed using PRISM.
 One-electron integral symmetry used in STVInt
   1 Symmetry operations used in ECPInt.
 ECPInt:  NShTT=   10153 NPrTT=   31120 LenC2=    9872 LenP2D=   23930.
 LDataN:  DoStor=T MaxTD1= 6 Len=  172
 NBasis=   358 RedAO= T EigKep=  6.75D-06  NBF=   358
 NBsUse=   358 1.00D-06 EigRej= -1.00D+00 NBFU=   358
 Precomputing XC quadrature grid using
 IXCGrd= 4 IRadAn=           5 IRanWt=          -1 IRanGd=           0 AccXCQ= 0.00D+00.
 Generated NRdTot=       0 NPtTot=           0 NUsed=           0 NTot=          32
 NSgBfM=   407   407   407   407   407 MxSgAt=    18 MxSgA2=    18.
 Leave Link  302 at Tue Apr  9 18:05:22 2024, MaxMem= 67108864000 cpu:              13.4 elap:               0.4
 (Enter /apps/gaussian/g16-c01-avx2/g16/l303.exe)
 DipDrv:  MaxL=1.
 Leave Link  303 at Tue Apr  9 18:05:22 2024, MaxMem= 67108864000 cpu:               1.4 elap:               0.1
 (Enter /apps/gaussian/g16-c01-avx2/g16/l401.exe)
 ExpMin= 9.52D-02 ExpMax= 1.36D+04 ExpMxC= 4.63D+02 IAcc=3 IRadAn=         5 AccDes= 0.00D+00
 Harris functional with IExCor=  402 and IRadAn=       5 diagonalized for initial guess.
 HarFok:  IExCor=  402 AccDes= 0.00D+00 IRadAn=         5 IDoV= 1 UseB2=F ITyADJ=14
 ICtDFT=  3500011 ScaDFX=  1.000000  1.000000  1.000000  1.000000
 FoFCou: FMM=F IPFlag=           0 FMFlag=      100000 FMFlg1=           0
         NFxFlg=           0 DoJE=T BraDBF=F KetDBF=T FulRan=T
         wScrn=  0.000000 ICntrl=       500 IOpCl=  0 I1Cent=   200000004 NGrid=           0
         NMat0=    1 NMatS0=      1 NMatT0=    0 NMatD0=    1 NMtDS0=    0 NMtDT0=    0
 Petite list used in FoFCou.
 Harris En= -386.074403710238    
 JPrj=0 DoOrth=F DoCkMO=F.
 Leave Link  401 at Tue Apr  9 18:05:24 2024, MaxMem= 67108864000 cpu:              43.7 elap:               1.4
 (Enter /apps/gaussian/g16-c01-avx2/g16/l502.exe)
 Integral symmetry usage will be decided dynamically.
 Closed shell SCF:
 Using DIIS extrapolation, IDIIS=  1040.
 NGot= 67108864000 LenX= 67108513966 LenY= 67108347061
 Requested convergence on RMS density matrix=1.00D-08 within 128 cycles.
 Requested convergence on MAX density matrix=1.00D-06.
 Requested convergence on             energy=1.00D-06.
 No special actions if energy rises.
 Fock matrices will be formed incrementally for  20 cycles.
 Integral accuracy reduced to 1.0D-05 until final iterations.

 Cycle   1  Pass 0  IDiag  1:
 FoFJK:  IHMeth= 1 ICntrl=       0 DoSepK=F KAlg= 0 I1Cent=           0 FoldK=F
 IRaf= 940000000 NMat=       1 IRICut=       1 DoRegI=T DoRafI=F ISym2E= 0 IDoP0=0 IntGTp=1.
 FoFCou: FMM=F IPFlag=           0 FMFlag=      100000 FMFlg1=           0
         NFxFlg=           0 DoJE=F BraDBF=F KetDBF=F FulRan=T
         wScrn=  0.000000 ICntrl=         0 IOpCl=  0 I1Cent=           0 NGrid=           0
         NMat0=    1 NMatS0=      1 NMatT0=    0 NMatD0=    1 NMtDS0=    0 NMtDT0=    0
 Symmetry not used in FoFCou.
 E= -385.780024993902    
 DIIS: error= 3.79D-02 at cycle   1 NSaved=   1.
 NSaved= 1 IEnMin= 1 EnMin= -385.780024993902     IErMin= 1 ErrMin= 3.79D-02
 ErrMax= 3.79D-02  0.00D+00 EMaxC= 1.00D-01 BMatC= 2.43D-01 BMatP= 2.43D-01
 IDIUse=3 WtCom= 6.21D-01 WtEn= 3.79D-01
 Coeff-Com:  0.100D+01
 Coeff-En:   0.100D+01
 Coeff:      0.100D+01
 Gap=     0.175 Goal=   None    Shift=    0.000
 GapD=    0.175 DampG=1.000 DampE=0.500 DampFc=0.5000 IDamp=-1.
 Damping current iteration by 5.00D-01
 RMSDP=3.01D-03 MaxDP=5.72D-02              OVMax= 1.72D-01

 Cycle   2  Pass 0  IDiag  1:
 RMSU=  1.45D-03    CP:  9.51D-01
 E= -385.892381506180     Delta-E=       -0.112356512277 Rises=F Damp=T
 DIIS: error= 6.81D-03 at cycle   2 NSaved=   2.
 NSaved= 2 IEnMin= 2 EnMin= -385.892381506180     IErMin= 2 ErrMin= 6.81D-03
 ErrMax= 6.81D-03  0.00D+00 EMaxC= 1.00D-01 BMatC= 1.34D-02 BMatP= 2.43D-01
 IDIUse=3 WtCom= 9.32D-01 WtEn= 6.81D-02
 Coeff-Com:  0.792D-02 0.992D+00
 Coeff-En:   0.738D-01 0.926D+00
 Coeff:      0.124D-01 0.988D+00
 Gap=     0.179 Goal=   None    Shift=    0.000
 RMSDP=9.05D-04 MaxDP=3.24D-02 DE=-1.12D-01 OVMax= 1.05D-01

 Cycle   3  Pass 0  IDiag  1:
 RMSU=  8.53D-04    CP:  9.35D-01  8.13D-01
 E= -386.024708906379     Delta-E=       -0.132327400199 Rises=F Damp=F
 DIIS: error= 7.94D-03 at cycle   3 NSaved=   3.
 NSaved= 3 IEnMin= 3 EnMin= -386.024708906379     IErMin= 2 ErrMin= 6.81D-03
 ErrMax= 7.94D-03  0.00D+00 EMaxC= 1.00D-01 BMatC= 6.32D-03 BMatP= 1.34D-02
 IDIUse=3 WtCom= 9.21D-01 WtEn= 7.94D-02
 Coeff-Com: -0.571D-01 0.393D+00 0.664D+00
 Coeff-En:   0.000D+00 0.000D+00 0.100D+01
 Coeff:     -0.526D-01 0.362D+00 0.691D+00
 Gap=     0.176 Goal=   None    Shift=    0.000
 RMSDP=2.90D-04 MaxDP=7.28D-03 DE=-1.32D-01 OVMax= 3.11D-02

 Cycle   4  Pass 0  IDiag  1:
 RMSU=  2.64D-04    CP:  9.33D-01  8.70D-01  8.97D-01
 E= -386.029466723854     Delta-E=       -0.004757817475 Rises=F Damp=F
 DIIS: error= 4.38D-03 at cycle   4 NSaved=   4.
 NSaved= 4 IEnMin= 4 EnMin= -386.029466723854     IErMin= 4 ErrMin= 4.38D-03
 ErrMax= 4.38D-03  0.00D+00 EMaxC= 1.00D-01 BMatC= 1.91D-03 BMatP= 6.32D-03
 IDIUse=3 WtCom= 9.56D-01 WtEn= 4.38D-02
 Coeff-Com: -0.348D-01 0.146D+00 0.402D+00 0.487D+00
 Coeff-En:   0.000D+00 0.000D+00 0.199D+00 0.801D+00
 Coeff:     -0.333D-01 0.140D+00 0.393D+00 0.500D+00
 Gap=     0.175 Goal=   None    Shift=    0.000
 RMSDP=1.07D-04 MaxDP=4.60D-03 DE=-4.76D-03 OVMax= 1.84D-02

 Cycle   5  Pass 0  IDiag  1:
 RMSU=  8.85D-05    CP:  9.33D-01  8.73D-01  9.33D-01  8.09D-01
 E= -386.031201317813     Delta-E=       -0.001734593959 Rises=F Damp=F
 DIIS: error= 1.58D-03 at cycle   5 NSaved=   5.
 NSaved= 5 IEnMin= 5 EnMin= -386.031201317813     IErMin= 5 ErrMin= 1.58D-03
 ErrMax= 1.58D-03  0.00D+00 EMaxC= 1.00D-01 BMatC= 1.84D-04 BMatP= 1.91D-03
 IDIUse=3 WtCom= 9.84D-01 WtEn= 1.58D-02
 Coeff-Com: -0.121D-01 0.308D-01 0.132D+00 0.284D+00 0.566D+00
 Coeff-En:   0.000D+00 0.000D+00 0.000D+00 0.666D-01 0.933D+00
 Coeff:     -0.119D-01 0.303D-01 0.130D+00 0.280D+00 0.572D+00
 Gap=     0.175 Goal=   None    Shift=    0.000
 RMSDP=4.08D-05 MaxDP=1.08D-03 DE=-1.73D-03 OVMax= 5.37D-03

 Cycle   6  Pass 0  IDiag  1:
 RMSU=  2.82D-05    CP:  9.32D-01  8.81D-01  9.43D-01  8.59D-01  7.59D-01
 E= -386.031369903508     Delta-E=       -0.000168585695 Rises=F Damp=F
 DIIS: error= 4.82D-04 at cycle   6 NSaved=   6.
 NSaved= 6 IEnMin= 6 EnMin= -386.031369903508     IErMin= 6 ErrMin= 4.82D-04
 ErrMax= 4.82D-04  0.00D+00 EMaxC= 1.00D-01 BMatC= 2.37D-05 BMatP= 1.84D-04
 IDIUse=3 WtCom= 9.95D-01 WtEn= 4.82D-03
 Coeff-Com: -0.507D-02 0.888D-02 0.531D-01 0.142D+00 0.363D+00 0.437D+00
 Coeff-En:   0.000D+00 0.000D+00 0.000D+00 0.000D+00 0.721D-01 0.928D+00
 Coeff:     -0.505D-02 0.884D-02 0.529D-01 0.142D+00 0.362D+00 0.440D+00
 Gap=     0.175 Goal=   None    Shift=    0.000
 RMSDP=1.36D-05 MaxDP=2.96D-04 DE=-1.69D-04 OVMax= 1.70D-03

 Cycle   7  Pass 0  IDiag  1:
 RMSU=  1.09D-05    CP:  9.32D-01  8.83D-01  9.45D-01  8.58D-01  8.42D-01
                    CP:  9.60D-01
 E= -386.031393804143     Delta-E=       -0.000023900635 Rises=F Damp=F
 DIIS: error= 2.37D-05 at cycle   7 NSaved=   7.
 NSaved= 7 IEnMin= 7 EnMin= -386.031393804143     IErMin= 7 ErrMin= 2.37D-05
 ErrMax= 2.37D-05  0.00D+00 EMaxC= 1.00D-01 BMatC= 1.17D-07 BMatP= 2.37D-05
 IDIUse=1 WtCom= 1.00D+00 WtEn= 0.00D+00
 Coeff-Com: -0.265D-03-0.264D-03 0.322D-02 0.134D-01 0.440D-01 0.987D-01
 Coeff-Com:  0.841D+00
 Coeff:     -0.265D-03-0.264D-03 0.322D-02 0.134D-01 0.440D-01 0.987D-01
 Coeff:      0.841D+00
 Gap=     0.175 Goal=   None    Shift=    0.000
 RMSDP=1.19D-05 MaxDP=2.65D-04 DE=-2.39D-05 OVMax= 8.03D-05

 Cycle   8  Pass 0  IDiag  1:
 RMSU=  6.43D-06    CP:  9.32D-01  8.86D-01  9.48D-01  8.61D-01  8.77D-01
                    CP:  1.17D+00  1.49D+00
 E= -386.031393545070     Delta-E=        0.000000259073 Rises=F Damp=F
 DIIS: error= 7.66D-06 at cycle   8 NSaved=   8.
 NSaved= 8 IEnMin= 7 EnMin= -386.031393804143     IErMin= 8 ErrMin= 7.66D-06
 ErrMax= 7.66D-06  0.00D+00 EMaxC= 1.00D-01 BMatC= 3.67D-09 BMatP= 1.17D-07
 IDIUse=1 WtCom= 1.00D+00 WtEn= 0.00D+00
 Coeff-Com:  0.206D-04-0.165D-03-0.266D-03 0.651D-03 0.268D-02 0.124D-01
 Coeff-Com:  0.162D+00 0.822D+00
 Coeff:      0.206D-04-0.165D-03-0.266D-03 0.651D-03 0.268D-02 0.124D-01
 Coeff:      0.162D+00 0.822D+00
 Gap=     0.175 Goal=   None    Shift=    0.000
 RMSDP=1.58D-05 MaxDP=3.93D-04 DE= 2.59D-07 OVMax= 2.33D-05

 Cycle   9  Pass 0  IDiag  1:
 RMSU=  7.67D-06    CP:  9.32D-01  8.91D-01  9.49D-01  8.62D-01  9.11D-01
                    CP:  1.36D+00  1.97D+00  2.31D+00
 E= -386.031393238738     Delta-E=        0.000000306332 Rises=F Damp=F
 DIIS: error= 1.03D-05 at cycle   9 NSaved=   9.
 NSaved= 9 IEnMin= 7 EnMin= -386.031393804143     IErMin= 8 ErrMin= 7.66D-06
 ErrMax= 1.03D-05  0.00D+00 EMaxC= 1.00D-01 BMatC= 2.79D-09 BMatP= 3.67D-09
 IDIUse=1 WtCom= 1.00D+00 WtEn= 0.00D+00
 Coeff-Com:  0.106D-04-0.103D-03-0.162D-03 0.512D-03 0.197D-02 0.849D-02
 Coeff-Com:  0.110D+00 0.568D+00 0.312D+00
 Coeff:      0.106D-04-0.103D-03-0.162D-03 0.512D-03 0.197D-02 0.849D-02
 Coeff:      0.110D+00 0.568D+00 0.312D+00
 Gap=     0.175 Goal=   None    Shift=    0.000
 RMSDP=8.66D-06 MaxDP=2.39D-04 DE= 3.06D-07 OVMax= 5.54D-06

 Initial convergence to 1.0D-05 achieved.  Increase integral accuracy.
 Cycle  10  Pass 1  IDiag  1:
 E= -386.031383198838     Delta-E=        0.000010039900 Rises=F Damp=F
 DIIS: error= 2.35D-04 at cycle   1 NSaved=   1.
 NSaved= 1 IEnMin= 1 EnMin= -386.031383198838     IErMin= 1 ErrMin= 2.35D-04
 ErrMax= 2.35D-04  0.00D+00 EMaxC= 1.00D-01 BMatC= 5.01D-06 BMatP= 5.01D-06
 IDIUse=3 WtCom= 9.98D-01 WtEn= 2.35D-03
 Coeff-Com:  0.100D+01
 Coeff-En:   0.100D+01
 Coeff:      0.100D+01
 Gap=     0.175 Goal=   None    Shift=    0.000
 RMSDP=8.66D-06 MaxDP=2.39D-04 DE= 1.00D-05 OVMax= 3.15D-04

 Cycle  11  Pass 1  IDiag  1:
 RMSU=  3.62D-04    CP:  9.98D-01
 E= -386.031385103252     Delta-E=       -0.000001904414 Rises=F Damp=F
 DIIS: error= 2.58D-06 at cycle   2 NSaved=   2.
 NSaved= 2 IEnMin= 2 EnMin= -386.031385103252     IErMin= 2 ErrMin= 2.58D-06
 ErrMax= 2.58D-06  0.00D+00 EMaxC= 1.00D-01 BMatC= 3.00D-10 BMatP= 5.01D-06
 IDIUse=1 WtCom= 1.00D+00 WtEn= 0.00D+00
 Coeff-Com: -0.476D-02 0.100D+01
 Coeff:     -0.476D-02 0.100D+01
 Gap=     0.175 Goal=   None    Shift=    0.000
 RMSDP=6.63D-06 MaxDP=1.56D-04 DE=-1.90D-06 OVMax= 7.70D-06

 Cycle  12  Pass 1  IDiag  1:
 RMSU=  1.72D-06    CP:  9.98D-01  1.02D+00
 E= -386.031385103535     Delta-E=       -0.000000000283 Rises=F Damp=F
 DIIS: error= 9.03D-07 at cycle   3 NSaved=   3.
 NSaved= 3 IEnMin= 3 EnMin= -386.031385103535     IErMin= 3 ErrMin= 9.03D-07
 ErrMax= 9.03D-07  0.00D+00 EMaxC= 1.00D-01 BMatC= 7.16D-11 BMatP= 3.00D-10
 IDIUse=1 WtCom= 1.00D+00 WtEn= 0.00D+00
 Coeff-Com: -0.161D-02 0.333D+00 0.668D+00
 Coeff:     -0.161D-02 0.333D+00 0.668D+00
 Gap=     0.175 Goal=   None    Shift=    0.000
 RMSDP=9.13D-08 MaxDP=1.95D-06 DE=-2.83D-10 OVMax= 5.47D-06

 Cycle  13  Pass 1  IDiag  1:
 RMSU=  3.62D-08    CP:  9.98D-01  1.02D+00  1.02D+00
 E= -386.031385103547     Delta-E=       -0.000000000012 Rises=F Damp=F
 DIIS: error= 8.61D-07 at cycle   4 NSaved=   4.
 NSaved= 4 IEnMin= 4 EnMin= -386.031385103547     IErMin= 4 ErrMin= 8.61D-07
 ErrMax= 8.61D-07  0.00D+00 EMaxC= 1.00D-01 BMatC= 6.00D-11 BMatP= 7.16D-11
 IDIUse=1 WtCom= 1.00D+00 WtEn= 0.00D+00
 Coeff-Com: -0.957D-04 0.163D-01 0.475D+00 0.509D+00
 Coeff:     -0.957D-04 0.163D-01 0.475D+00 0.509D+00
 Gap=     0.175 Goal=   None    Shift=    0.000
 RMSDP=4.51D-08 MaxDP=1.13D-06 DE=-1.18D-11 OVMax= 2.84D-06

 Cycle  14  Pass 1  IDiag  1:
 RMSU=  1.73D-08    CP:  9.98D-01  1.02D+00  1.03D+00  7.33D-01
 E= -386.031385103608     Delta-E=       -0.000000000060 Rises=F Damp=F
 DIIS: error= 1.13D-07 at cycle   5 NSaved=   5.
 NSaved= 5 IEnMin= 5 EnMin= -386.031385103608     IErMin= 5 ErrMin= 1.13D-07
 ErrMax= 1.13D-07  0.00D+00 EMaxC= 1.00D-01 BMatC= 1.64D-12 BMatP= 6.00D-11
 IDIUse=1 WtCom= 1.00D+00 WtEn= 0.00D+00
 Coeff-Com: -0.608D-05-0.648D-03 0.241D+00 0.284D+00 0.475D+00
 Coeff:     -0.608D-05-0.648D-03 0.241D+00 0.284D+00 0.475D+00
 Gap=     0.175 Goal=   None    Shift=    0.000
 RMSDP=4.14D-09 MaxDP=1.05D-07 DE=-6.05D-11 OVMax= 4.96D-07

 SCF Done:  E(RB3LYP) =  -386.031385104     A.U. after   14 cycles
            NFock= 14  Conv=0.41D-08     -V/T= 2.0059
 KE= 3.837548090627D+02 PE=-1.809903463081D+03 EE= 5.825607995190D+02
 Leave Link  502 at Tue Apr  9 18:06:08 2024, MaxMem= 67108864000 cpu:            1411.9 elap:              44.6
 (Enter /apps/gaussian/g16-c01-avx2/g16/l601.exe)
 Copying SCF densities to generalized density rwf, IOpCl= 0 IROHF=0.

 **********************************************************************

            Population analysis using the SCF Density.

 **********************************************************************

 Orbital symmetries:
       Occupied  (A) (A) (A) (A) (A) (A) (A) (A) (A) (A) (A) (A)
                 (A) (A) (A) (A) (A) (A) (A) (A) (A) (A) (A) (A)
                 (A) (A) (A) (A) (A) (A) (A) (A) (A) (A)
       Virtual   (A) (A) (A) (A) (A) (A) (A) (A) (A) (A) (A) (A)
                 (A) (A) (A) (A) (A) (A) (A) (A) (A) (A) (A) (A)
                 (A) (A) (A) (A) (A) (A) (A) (A) (A) (A) (A) (A)
                 (A) (A) (A) (A) (A) (A) (A) (A) (A) (A) (A) (A)
                 (A) (A) (A) (A) (A) (A) (A) (A) (A) (A) (A) (A)
                 (A) (A) (A) (A) (A) (A) (A) (A) (A) (A) (A) (A)
                 (A) (A) (A) (A) (A) (A) (A) (A) (A) (A) (A) (A)
                 (A) (A) (A) (A) (A) (A) (A) (A) (A) (A) (A) (A)
                 (A) (A) (A) (A) (A) (A) (A) (A) (A) (A) (A) (A)
                 (A) (A) (A) (A) (A) (A) (A) (A) (A) (A) (A) (A)
                 (A) (A) (A) (A) (A) (A) (A) (A) (A) (A) (A) (A)
                 (A) (A) (A) (A) (A) (A) (A) (A) (A) (A) (A) (A)
                 (A) (A) (A) (A) (A) (A) (A) (A) (A) (A) (A) (A)
                 (A) (A) (A) (A) (A) (A) (A) (A) (A) (A) (A) (A)
                 (A) (A) (A) (A) (A) (A) (A) (A) (A) (A) (A) (A)
                 (A) (A) (A) (A) (A) (A) (A) (A) (A) (A) (A) (A)
                 (A) (A) (A) (A) (A) (A) (A) (A) (A) (A) (A) (A)
                 (A) (A) (A) (A) (A) (A) (A) (A) (A) (A) (A) (A)
                 (A) (A) (A) (A) (A) (A) (A) (A) (A) (A) (A) (A)
                 (A) (A) (A) (A) (A) (A) (A) (A) (A) (A) (A) (A)
                 (A) (A) (A) (A) (A) (A) (A) (A) (A) (A) (A) (A)
                 (A) (A) (A) (A) (A) (A) (A) (A) (A) (A) (A) (A)
                 (A) (A) (A) (A) (A) (A) (A) (A) (A) (A) (A) (A)
                 (A) (A) (A) (A) (A) (A) (A) (A) (A) (A) (A) (A)
                 (A) (A) (A) (A) (A) (A) (A) (A) (A) (A) (A) (A)
                 (A) (A) (A) (A) (A) (A) (A) (A) (A) (A) (A) (A)
                 (A) (A) (A) (A) (A) (A) (A) (A) (A) (A) (A) (A)
 The electronic state is 1-A.
 Alpha  occ. eigenvalues --  -10.18820 -10.18777 -10.18162 -10.18158 -10.18152
 Alpha  occ. eigenvalues --  -10.18150 -10.18091 -10.18089 -10.18053 -10.18051
 Alpha  occ. eigenvalues --   -0.87926  -0.82539  -0.77667  -0.74483  -0.72211
 Alpha  occ. eigenvalues --   -0.62855  -0.61408  -0.60020  -0.51714  -0.51067
 Alpha  occ. eigenvalues --   -0.49880  -0.45034  -0.44596  -0.42191  -0.42052
 Alpha  occ. eigenvalues --   -0.40391  -0.39852  -0.37240  -0.34293  -0.33701
 Alpha  occ. eigenvalues --   -0.33549  -0.29284  -0.25290  -0.22516
 Alpha virt. eigenvalues --   -0.04966  -0.02126   0.01016   0.04415   0.05664
 Alpha virt. eigenvalues --    0.05949   0.08418   0.08810   0.09155   0.10169
 Alpha virt. eigenvalues --    0.11480   0.12940   0.14279   0.15634   0.16540
 Alpha virt. eigenvalues --    0.18004   0.18253   0.19215   0.19364   0.22543
 Alpha virt. eigenvalues --    0.22555   0.24143   0.24475   0.24754   0.25489
 Alpha virt. eigenvalues --    0.26398   0.27344   0.27745   0.27848   0.29659
 Alpha virt. eigenvalues --    0.30021   0.31380   0.32312   0.34760   0.34770
 Alpha virt. eigenvalues --    0.35025   0.35027   0.35732   0.36342   0.38938
 Alpha virt. eigenvalues --    0.39012   0.40870   0.41036   0.41300   0.41894
 Alpha virt. eigenvalues --    0.42813   0.43438   0.46372   0.46422   0.46533
 Alpha virt. eigenvalues --    0.47854   0.48693   0.49200   0.50447   0.51383
 Alpha virt. eigenvalues --    0.51488   0.52538   0.55622   0.56028   0.57647
 Alpha virt. eigenvalues --    0.61578   0.62499   0.66337   0.66522   0.66898
 Alpha virt. eigenvalues --    0.68741   0.70091   0.71143   0.71344   0.72045
 Alpha virt. eigenvalues --    0.72845   0.73857   0.74051   0.75255   0.75518
 Alpha virt. eigenvalues --    0.80528   0.82663   0.82968   0.84109   0.86347
 Alpha virt. eigenvalues --    0.86379   0.86948   0.87953   0.87964   0.91318
 Alpha virt. eigenvalues --    0.92609   0.94246   0.97605   0.97964   0.98620
 Alpha virt. eigenvalues --    0.99714   1.05795   1.06907   1.09149   1.11651
 Alpha virt. eigenvalues --    1.12353   1.13540   1.15759   1.19177   1.20014
 Alpha virt. eigenvalues --    1.21692   1.22186   1.22303   1.23434   1.23517
 Alpha virt. eigenvalues --    1.23942   1.24116   1.25923   1.27169   1.33344
 Alpha virt. eigenvalues --    1.34497   1.37646   1.38458   1.39626   1.40163
 Alpha virt. eigenvalues --    1.40728   1.44741   1.46753   1.47973   1.49498
 Alpha virt. eigenvalues --    1.50045   1.50786   1.51293   1.52050   1.54102
 Alpha virt. eigenvalues --    1.56394   1.56700   1.59057   1.65320   1.65353
 Alpha virt. eigenvalues --    1.65358   1.65490   1.66507   1.67136   1.69119
 Alpha virt. eigenvalues --    1.69456   1.70019   1.70814   1.74258   1.75260
 Alpha virt. eigenvalues --    1.82337   1.83597   1.83777   1.86033   1.90349
 Alpha virt. eigenvalues --    1.94939   1.95761   1.96395   1.99065   1.99562
 Alpha virt. eigenvalues --    2.01547   2.03073   2.07977   2.10747   2.12037
 Alpha virt. eigenvalues --    2.13833   2.15623   2.16335   2.18499   2.19356
 Alpha virt. eigenvalues --    2.24247   2.24289   2.24549   2.26726   2.29333
 Alpha virt. eigenvalues --    2.31854   2.38003   2.41323   2.43171   2.44351
 Alpha virt. eigenvalues --    2.45021   2.45116   2.53732   2.54672   2.55612
 Alpha virt. eigenvalues --    2.56535   2.57307   2.58923   2.59785   2.62391
 Alpha virt. eigenvalues --    2.62892   2.63673   2.64053   2.65750   2.70252
 Alpha virt. eigenvalues --    2.70442   2.71360   2.73422   2.73798   2.74173
 Alpha virt. eigenvalues --    2.76238   2.77460   2.77892   2.78864   2.79887
 Alpha virt. eigenvalues --    2.80129   2.81486   2.82421   2.86136   2.87646
 Alpha virt. eigenvalues --    2.87727   2.87873   2.89685   2.89883   2.92608
 Alpha virt. eigenvalues --    2.94086   2.96770   2.97122   2.99974   3.00202
 Alpha virt. eigenvalues --    3.00253   3.00673   3.02986   3.07739   3.08865
 Alpha virt. eigenvalues --    3.11139   3.13535   3.13939   3.14486   3.15601
 Alpha virt. eigenvalues --    3.18597   3.19075   3.19310   3.20379   3.20964
 Alpha virt. eigenvalues --    3.23890   3.23937   3.24772   3.25178   3.25884
 Alpha virt. eigenvalues --    3.29278   3.31453   3.31560   3.33016   3.33890
 Alpha virt. eigenvalues --    3.35593   3.35983   3.36512   3.37610   3.42385
 Alpha virt. eigenvalues --    3.43646   3.44551   3.45224   3.47442   3.47486
 Alpha virt. eigenvalues --    3.48879   3.49638   3.52627   3.54886   3.57187
 Alpha virt. eigenvalues --    3.58302   3.59463   3.61632   3.63605   3.65682
 Alpha virt. eigenvalues --    3.68105   3.69995   3.73404   3.80397   3.81190
 Alpha virt. eigenvalues --    3.84168   3.84257   3.84685   3.90185   3.90711
 Alpha virt. eigenvalues --    3.91964   3.94744   3.95407   4.01524   4.03663
 Alpha virt. eigenvalues --    4.04195   4.11733   4.12205   4.12595   4.15959
 Alpha virt. eigenvalues --    4.16421   4.16611   4.20941   4.21433   4.23607
 Alpha virt. eigenvalues --    4.24067   4.26744   4.26958   4.31905   4.33334
 Alpha virt. eigenvalues --    4.34942   4.41781   4.45250   4.45751   4.51696
 Alpha virt. eigenvalues --    4.53553   4.61658   4.68974   4.69691   4.70658
 Alpha virt. eigenvalues --    4.75462   4.77394   4.77661   4.77984   4.87424
 Alpha virt. eigenvalues --    4.93812   5.02276   5.04557   5.07295   5.08976
 Alpha virt. eigenvalues --    5.19809   5.19860   5.31485   5.33184   5.36597
 Alpha virt. eigenvalues --    5.59294   5.59489   5.66345   5.90996  21.79458
 Alpha virt. eigenvalues --   22.49646  22.56562  22.58106  22.62767  22.66870
 Alpha virt. eigenvalues --   22.78629  22.86311  22.98566  23.53711
          Condensed to atoms (all electrons):
               1          2          3          4          5          6
     1  C    4.885694   0.531604  -0.023138  -0.049796  -0.019800   0.439740
     2  C    0.531604   5.016603   0.431036  -0.036338  -0.053763  -0.020143
     3  C   -0.023138   0.431036   4.877657   0.426984  -0.036236  -0.049551
     4  C   -0.049796  -0.036338   0.426984   4.877508   0.431286  -0.023475
     5  C   -0.019800  -0.053763  -0.036236   0.431286   5.017136   0.531423
     6  C    0.439740  -0.020143  -0.049551  -0.023475   0.531423   4.885530
     7  H    0.000503  -0.002653  -0.062492   0.010823  -0.000355  -0.000001
     8  H    0.421893  -0.049405   0.010034  -0.001279   0.009343  -0.051341
     9  H   -0.047032   0.423816  -0.062552   0.010852  -0.001753   0.009269
    10  C    0.005300  -0.087768   0.430999  -0.036283   0.009738   0.000749
    11  C    0.000747   0.009717  -0.036431   0.430991  -0.087778   0.005259
    12  H    0.009248  -0.001753   0.010831  -0.062455   0.423877  -0.046999
    13  H   -0.051313   0.009352  -0.001283   0.010046  -0.049464   0.421915
    14  C    0.000320   0.000746  -0.049852  -0.023030   0.005299  -0.001062
    15  C   -0.001062   0.005249  -0.023427  -0.049440   0.000754   0.000313
    16  H   -0.000001  -0.000361   0.010871  -0.062608  -0.002632   0.000500
    17  H    0.000001   0.000071  -0.001279   0.010029  -0.000628   0.000020
    18  H    0.000020  -0.000626   0.010047  -0.001287   0.000070   0.000001
               7          8          9         10         11         12
     1  C    0.000503   0.421893  -0.047032   0.005300   0.000747   0.009248
     2  C   -0.002653  -0.049405   0.423816  -0.087768   0.009717  -0.001753
     3  C   -0.062492   0.010034  -0.062552   0.430999  -0.036431   0.010831
     4  C    0.010823  -0.001279   0.010852  -0.036283   0.430991  -0.062455
     5  C   -0.000355   0.009343  -0.001753   0.009738  -0.087778   0.423877
     6  C   -0.000001  -0.051341   0.009269   0.000749   0.005259  -0.046999
     7  H    0.570120  -0.000048   0.006625   0.423870  -0.001752   0.000027
     8  H   -0.000048   0.568059  -0.008141  -0.000630   0.000071  -0.000315
     9  H    0.006625  -0.008141   0.570229  -0.002635  -0.000360   0.000091
    10  C    0.423870  -0.000630  -0.002635   5.017274  -0.053842  -0.000354
    11  C   -0.001752   0.000071  -0.000360  -0.053842   5.016677  -0.002659
    12  H    0.000027  -0.000315   0.000091  -0.000354  -0.002659   0.569941
    13  H   -0.000004  -0.006472  -0.000314   0.000070  -0.000627  -0.008096
    14  C    0.009270   0.000001  -0.000001  -0.019860   0.531795   0.000503
    15  C   -0.047046   0.000020   0.000503   0.531689  -0.020128  -0.000001
    16  H    0.000091  -0.000004   0.000027  -0.001752   0.423790   0.006626
    17  H   -0.000316   0.000000  -0.000004   0.009345  -0.049368  -0.000048
    18  H   -0.008119  -0.000000  -0.000047  -0.049414   0.009346  -0.000004
              13         14         15         16         17         18
     1  C   -0.051313   0.000320  -0.001062  -0.000001   0.000001   0.000020
     2  C    0.009352   0.000746   0.005249  -0.000361   0.000071  -0.000626
     3  C   -0.001283  -0.049852  -0.023427   0.010871  -0.001279   0.010047
     4  C    0.010046  -0.023030  -0.049440  -0.062608   0.010029  -0.001287
     5  C   -0.049464   0.005299   0.000754  -0.002632  -0.000628   0.000070
     6  C    0.421915  -0.001062   0.000313   0.000500   0.000020   0.000001
     7  H   -0.000004   0.009270  -0.047046   0.000091  -0.000316  -0.008119
     8  H   -0.006472   0.000001   0.000020  -0.000004   0.000000  -0.000000
     9  H   -0.000314  -0.000001   0.000503   0.000027  -0.000004  -0.000047
    10  C    0.000070  -0.019860   0.531689  -0.001752   0.009345  -0.049414
    11  C   -0.000627   0.531795  -0.020128   0.423790  -0.049368   0.009346
    12  H   -0.008096   0.000503  -0.000001   0.006626  -0.000048  -0.000004
    13  H    0.567941   0.000020   0.000001  -0.000047  -0.000000   0.000000
    14  C    0.000020   4.885846   0.439424  -0.047053   0.421880  -0.051329
    15  C    0.000001   0.439424   4.885515   0.009276  -0.051353   0.421922
    16  H   -0.000047  -0.047053   0.009276   0.570383  -0.008150  -0.000314
    17  H   -0.000000   0.421880  -0.051353  -0.008150   0.568019  -0.006453
    18  H    0.000000  -0.051329   0.421922  -0.000314  -0.006453   0.567900
 Mulliken charges:
               1
     1  C   -0.102929
     2  C   -0.175381
     3  C    0.137782
     4  C    0.137471
     5  C   -0.176518
     6  C   -0.102148
     7  H    0.101455
     8  H    0.108212
     9  H    0.101428
    10  C   -0.176495
    11  C   -0.175448
    12  H    0.101540
    13  H    0.108275
    14  C   -0.102916
    15  C   -0.102209
    16  H    0.101359
    17  H    0.108233
    18  H    0.108289
 Sum of Mulliken charges =  -0.00000
 Mulliken charges with hydrogens summed into heavy atoms:
               1
     1  C    0.005283
     2  C   -0.073953
     3  C    0.137782
     4  C    0.137471
     5  C   -0.074978
     6  C    0.006127
    10  C   -0.075041
    11  C   -0.074089
    14  C    0.005317
    15  C    0.006080
 Electronic spatial extent (au):  <R**2>=           1292.2988
 Charge=             -0.0000 electrons
 Dipole moment (field-independent basis, Debye):
    X=              0.0002    Y=             -0.0003    Z=              0.0001  Tot=              0.0004
 Quadrupole moment (field-independent basis, Debye-Ang):
   XX=            -52.0475   YY=            -52.2390   ZZ=            -64.1694
   XY=              0.0075   XZ=             -0.0002   YZ=              0.0011
 Traceless Quadrupole moment (field-independent basis, Debye-Ang):
   XX=              4.1045   YY=              3.9130   ZZ=             -8.0175
   XY=              0.0075   XZ=             -0.0002   YZ=              0.0011
 Octapole moment (field-independent basis, Debye-Ang**2):
  XXX=             -0.0164  YYY=             -0.0003  ZZZ=              0.0000  XYY=              0.0065
  XXY=             -0.0048  XXZ=              0.0042  XZZ=              0.0006  YZZ=             -0.0009
  YYZ=             -0.0008  XYZ=             -0.0006
 Hexadecapole moment (field-independent basis, Debye-Ang**3):
 XXXX=          -1099.6749 YYYY=           -491.2298 ZZZZ=            -76.6815 XXXY=              0.0388
 XXXZ=             -0.0072 YYYX=              0.0531 YYYZ=              0.0078 ZZZX=             -0.0001
 ZZZY=              0.0014 XXYY=           -272.3868 XXZZ=           -241.7259 YYZZ=           -114.0542
 XXYZ=              0.0049 YYXZ=              0.0015 ZZXY=              0.0007
 N-N= 4.575564693960D+02 E-N=-1.809903454481D+03  KE= 3.837548090627D+02
 No NMR shielding tensors so no spin-rotation constants.
 Leave Link  601 at Tue Apr  9 18:06:09 2024, MaxMem= 67108864000 cpu:               8.1 elap:               0.3
 (Enter /apps/gaussian/g16-c01-avx2/g16/l701.exe)
 ... and contract with generalized density number  0.
 Compute integral first derivatives.
   1 Symmetry operations used in ECPInt.
 ECPInt:  NShTT=   10153 NPrTT=   31120 LenC2=    9872 LenP2D=   23930.
 LDataN:  DoStor=T MaxTD1= 7 Len=  274
 Leave Link  701 at Tue Apr  9 18:06:09 2024, MaxMem= 67108864000 cpu:              10.9 elap:               0.4
 (Enter /apps/gaussian/g16-c01-avx2/g16/l702.exe)
 L702 exits ... SP integral derivatives will be done elsewhere.
 Leave Link  702 at Tue Apr  9 18:06:09 2024, MaxMem= 67108864000 cpu:               0.4 elap:               0.0
 (Enter /apps/gaussian/g16-c01-avx2/g16/l703.exe)
 Integral derivatives from FoFJK, PRISM(SPDF).
 Compute integral first derivatives, UseDBF=F ICtDFT=           0.
 Calling FoFJK, ICntrl=      2127 FMM=F ISym2X=0 I1Cent= 0 IOpClX= 0 NMat=1 NMatS=1 NMatT=0.
 FoFJK:  IHMeth= 1 ICntrl=    2127 DoSepK=F KAlg= 0 I1Cent=           0 FoldK=F
 IRaf=         0 NMat=       1 IRICut=       1 DoRegI=T DoRafI=F ISym2E= 0 IDoP0=0 IntGTp=1.
 FoFCou: FMM=F IPFlag=           0 FMFlag=      100000 FMFlg1=         800
         NFxFlg=           0 DoJE=F BraDBF=F KetDBF=F FulRan=T
         wScrn=  0.000000 ICntrl=      2127 IOpCl=  0 I1Cent=           0 NGrid=           0
         NMat0=    1 NMatS0=      1 NMatT0=    0 NMatD0=    1 NMtDS0=    0 NMtDT0=    0
 Symmetry not used in FoFCou.
 Leave Link  703 at Tue Apr  9 18:06:27 2024, MaxMem= 67108864000 cpu:             546.6 elap:              17.3
 (Enter /apps/gaussian/g16-c01-avx2/g16/l716.exe)
 Dipole        = 8.48706495D-05-1.33175389D-04 4.64052626D-05
 ***** Axes restored to original set *****
 -------------------------------------------------------------------
 Center     Atomic                   Forces (Hartrees/Bohr)
 Number     Number              X              Y              Z
 -------------------------------------------------------------------
      1        6          -0.004549038   -0.007044438    0.000011702
      2        6           0.003060384   -0.004839223   -0.000023358
      3        6           0.004924060   -0.009125199    0.000014019
      4        6          -0.004603385    0.009083007   -0.000001904
      5        6          -0.002962473    0.004343993   -0.000019543
      6        6          -0.008110360   -0.000050093    0.000014429
      7        1          -0.004991867    0.009646389   -0.000013224
      8        1           0.006518557    0.009043821   -0.000001113
      9        1          -0.006049537    0.009028336    0.000004707
     10        6           0.002853734   -0.004725401    0.000016487
     11        6          -0.003043025    0.004998035    0.000000796
     12        1           0.004918799   -0.009637182    0.000007294
     13        1           0.011061163    0.001239078   -0.000005369
     14        6           0.004451342    0.006916775   -0.000029875
     15        6           0.008061594    0.000465051    0.000013376
     16        1           0.006040574   -0.009027669   -0.000001593
     17        1          -0.006517902   -0.009028778    0.000013073
     18        1          -0.011062620   -0.001286501    0.000000096
 -------------------------------------------------------------------
 Cartesian Forces:  Max     0.011062620 RMS     0.005396599
 Leave Link  716 at Tue Apr  9 18:06:27 2024, MaxMem= 67108864000 cpu:               0.5 elap:               0.0
 (Enter /apps/gaussian/g16-c01-avx2/g16/l103.exe)

 GradGradGradGradGradGradGradGradGradGradGradGradGradGradGradGradGradGrad
 Berny optimization.
 FormGI is forming the generalized inverse of G from B-inverse, IUseBI=4.
 Internal  Forces:  Max     0.011103448 RMS     0.003482566
 Search for a local minimum.
 Step number   1 out of a maximum of  103
 All quantities printed in internal units (Hartrees-Bohrs-Radians)
 RMS Force = .34826D-02 SwitMx=.10000D-02 MixMth= 1
 Mixed Optimization -- RFO/linear search
 Second derivative matrix not updated -- first step.
 ITU=  0
     Eigenvalues ---    0.01806   0.01817   0.01818   0.01995   0.02012
     Eigenvalues ---    0.02032   0.02051   0.02129   0.02130   0.02159
     Eigenvalues ---    0.02159   0.02190   0.02222   0.02287   0.02305
     Eigenvalues ---    0.16000   0.16000   0.16000   0.16000   0.16000
     Eigenvalues ---    0.16000   0.16000   0.16000   0.22000   0.22000
     Eigenvalues ---    0.22333   0.22797   0.24282   0.24714   0.33644
     Eigenvalues ---    0.33645   0.33648   0.33659   0.33683   0.33686
     Eigenvalues ---    0.33687   0.33688   0.37465   0.39658   0.40110
     Eigenvalues ---    0.41032   0.42246   0.42558   0.42923   0.48396
     Eigenvalues ---    0.48613   0.49798   0.49828
 RFO step:  Lambda=-3.27784766D-03 EMin= 1.80597828D-02
 Linear search not attempted -- first point.
 Iteration  1 RMS(Cart)=  0.01262762 RMS(Int)=  0.00003997
 Iteration  2 RMS(Cart)=  0.00006061 RMS(Int)=  0.00000134
 Iteration  3 RMS(Cart)=  0.00000000 RMS(Int)=  0.00000134
 ITry= 1 IFail=0 DXMaxC= 4.11D-02 DCOld= 1.00D+10 DXMaxT= 3.00D-01 DXLimC= 3.00D+00 Rises=F
 Variable       Old X    -DE/DX   Delta X   Delta X   Delta X     New X
                                 (Linear)    (Quad)   (Total)
    R1        2.59422  -0.00339   0.00000  -0.00690  -0.00690   2.58732
    R2        2.67590  -0.00270   0.00000  -0.00677  -0.00677   2.66913
    R3        2.07869  -0.01110   0.00000  -0.03265  -0.03265   2.04604
    R4        2.68721  -0.00356   0.00000  -0.00807  -0.00808   2.67914
    R5        2.07933  -0.01085   0.00000  -0.03195  -0.03195   2.04738
    R6        2.68127   0.00381   0.00000   0.01000   0.01000   2.69127
    R7        2.68725  -0.00364   0.00000  -0.00831  -0.00831   2.67894
    R8        2.68666  -0.00345   0.00000  -0.00785  -0.00786   2.67881
    R9        2.68735  -0.00355   0.00000  -0.00808  -0.00808   2.67927
   R10        2.59524  -0.00379   0.00000  -0.00773  -0.00773   2.58750
   R11        2.07909  -0.01081   0.00000  -0.03180  -0.03180   2.04730
   R12        2.07861  -0.01109   0.00000  -0.03260  -0.03260   2.04601
   R13        2.07928  -0.01085   0.00000  -0.03194  -0.03194   2.04734
   R14        2.59448  -0.00350   0.00000  -0.00715  -0.00714   2.58734
   R15        2.59433  -0.00352   0.00000  -0.00717  -0.00717   2.58716
   R16        2.07936  -0.01085   0.00000  -0.03193  -0.03193   2.04743
   R17        2.67628  -0.00274   0.00000  -0.00688  -0.00688   2.66940
   R18        2.07863  -0.01109   0.00000  -0.03260  -0.03260   2.04602
   R19        2.07860  -0.01109   0.00000  -0.03260  -0.03260   2.04599
    A1        2.10096   0.00014   0.00000  -0.00088  -0.00087   2.10009
    A2        2.10570  -0.00111   0.00000  -0.00591  -0.00591   2.09978
    A3        2.07652   0.00097   0.00000   0.00679   0.00679   2.08331
    A4        2.10330   0.00095   0.00000   0.00444   0.00443   2.10773
    A5        2.10981  -0.00105   0.00000  -0.00577  -0.00577   2.10404
    A6        2.07008   0.00011   0.00000   0.00133   0.00133   2.07141
    A7        2.07862  -0.00106   0.00000  -0.00334  -0.00334   2.07528
    A8        2.12407   0.00248   0.00000   0.00822   0.00822   2.13229
    A9        2.08050  -0.00143   0.00000  -0.00488  -0.00488   2.07562
   A10        2.08061  -0.00145   0.00000  -0.00499  -0.00499   2.07562
   A11        2.07798  -0.00093   0.00000  -0.00284  -0.00284   2.07514
   A12        2.12459   0.00238   0.00000   0.00783   0.00783   2.13242
   A13        2.10235   0.00118   0.00000   0.00529   0.00529   2.10764
   A14        2.07073  -0.00005   0.00000   0.00071   0.00071   2.07144
   A15        2.11010  -0.00114   0.00000  -0.00600  -0.00600   2.10411
   A16        2.10053   0.00024   0.00000  -0.00052  -0.00052   2.10001
   A17        2.07699   0.00089   0.00000   0.00646   0.00646   2.08345
   A18        2.10566  -0.00113   0.00000  -0.00594  -0.00594   2.09973
   A19        2.07068  -0.00003   0.00000   0.00064   0.00064   2.07131
   A20        2.10307   0.00103   0.00000   0.00468   0.00469   2.10775
   A21        2.10944  -0.00100   0.00000  -0.00532  -0.00532   2.10412
   A22        2.10398   0.00084   0.00000   0.00392   0.00391   2.10789
   A23        2.06981   0.00016   0.00000   0.00157   0.00157   2.07138
   A24        2.10940  -0.00100   0.00000  -0.00549  -0.00549   2.10391
   A25        2.10080   0.00016   0.00000  -0.00077  -0.00077   2.10003
   A26        2.10573  -0.00113   0.00000  -0.00601  -0.00602   2.09971
   A27        2.07666   0.00096   0.00000   0.00678   0.00678   2.08344
   A28        2.10005   0.00032   0.00000  -0.00012  -0.00011   2.09994
   A29        2.10635  -0.00122   0.00000  -0.00643  -0.00644   2.09992
   A30        2.07679   0.00090   0.00000   0.00655   0.00655   2.08333
    D1       -0.00019   0.00000   0.00000   0.00021   0.00021   0.00002
    D2       -3.14154  -0.00000   0.00000  -0.00004  -0.00004  -3.14159
    D3        3.14151   0.00000   0.00000   0.00011   0.00011  -3.14156
    D4        0.00016  -0.00000   0.00000  -0.00014  -0.00014   0.00002
    D5       -0.00005   0.00000   0.00000   0.00004   0.00004  -0.00001
    D6       -3.14148  -0.00000   0.00000  -0.00011  -0.00011  -3.14159
    D7        3.14144   0.00000   0.00000   0.00013   0.00014   3.14157
    D8        0.00001  -0.00000   0.00000  -0.00002  -0.00002  -0.00001
    D9        0.00030  -0.00001   0.00000  -0.00032  -0.00032  -0.00002
   D10       -3.14138  -0.00001   0.00000  -0.00021  -0.00021  -3.14158
   D11       -3.14153  -0.00000   0.00000  -0.00007  -0.00007   3.14159
   D12       -0.00002   0.00000   0.00000   0.00004   0.00004   0.00002
   D13       -0.00017   0.00000   0.00000   0.00017   0.00017   0.00001
   D14        3.14150   0.00000   0.00000   0.00012   0.00012  -3.14156
   D15        3.14150   0.00000   0.00000   0.00007   0.00007   3.14157
   D16       -0.00001   0.00000   0.00000   0.00002   0.00002   0.00000
   D17       -0.00024   0.00000   0.00000   0.00015   0.00015  -0.00008
   D18       -3.14158  -0.00000   0.00000  -0.00005  -0.00005   3.14155
   D19        3.14128   0.00001   0.00000   0.00026   0.00026   3.14154
   D20       -0.00007   0.00000   0.00000   0.00005   0.00005  -0.00002
   D21       -0.00007   0.00000   0.00000   0.00007   0.00007   0.00000
   D22       -3.14138  -0.00000   0.00000  -0.00018  -0.00018  -3.14156
   D23        3.14145   0.00000   0.00000   0.00012   0.00012   3.14157
   D24        0.00014  -0.00000   0.00000  -0.00013  -0.00013   0.00001
   D25        0.00003  -0.00000   0.00000  -0.00000  -0.00000   0.00002
   D26        3.14156   0.00000   0.00000   0.00007   0.00007  -3.14156
   D27       -3.14149  -0.00000   0.00000  -0.00005  -0.00005  -3.14154
   D28        0.00005   0.00000   0.00000   0.00002   0.00002   0.00006
   D29        0.00018  -0.00000   0.00000  -0.00018  -0.00018  -0.00000
   D30       -3.14158  -0.00000   0.00000  -0.00003  -0.00003   3.14158
   D31        3.14149   0.00000   0.00000   0.00007   0.00007   3.14156
   D32       -0.00027   0.00001   0.00000   0.00023   0.00023  -0.00005
   D33        0.00015  -0.00000   0.00000  -0.00014  -0.00014   0.00001
   D34        3.14157   0.00000   0.00000   0.00003   0.00003  -3.14158
   D35       -3.14120  -0.00001   0.00000  -0.00035  -0.00035  -3.14155
   D36        0.00023  -0.00000   0.00000  -0.00018  -0.00018   0.00005
   D37        0.00005  -0.00000   0.00000  -0.00008  -0.00008  -0.00003
   D38        3.14131   0.00001   0.00000   0.00022   0.00022   3.14153
   D39       -3.14149  -0.00000   0.00000  -0.00015  -0.00015   3.14154
   D40       -0.00023   0.00000   0.00000   0.00015   0.00015  -0.00008
   D41       -0.00014   0.00000   0.00000   0.00015   0.00015   0.00002
   D42       -3.14156   0.00000   0.00000  -0.00001  -0.00001  -3.14158
   D43       -3.14140  -0.00000   0.00000  -0.00014  -0.00014  -3.14154
   D44        0.00035  -0.00001   0.00000  -0.00030  -0.00030   0.00005
         Item               Value     Threshold  Converged?
 Maximum Force            0.011103     0.000450     NO 
 RMS     Force            0.003483     0.000300     NO 
 Maximum Displacement     0.041095     0.001800     NO 
 RMS     Displacement     0.012626     0.001200     NO 
 Predicted change in Energy=-1.654886D-03
 Lowest energy point so far.  Saving SCF results.
 GradGradGradGradGradGradGradGradGradGradGradGradGradGradGradGradGradGrad

 Leave Link  103 at Tue Apr  9 18:06:27 2024, MaxMem= 67108864000 cpu:               1.5 elap:               0.1
 (Enter /apps/gaussian/g16-c01-avx2/g16/l202.exe)
                          Input orientation:                          
 ---------------------------------------------------------------------
 Center     Atomic      Atomic             Coordinates (Angstroms)
 Number     Number       Type             X           Y           Z
 ---------------------------------------------------------------------
      1          6           0       -4.056757   -0.740771    0.000315
      2          6           0       -2.687606   -0.740096    0.000141
      3          6           0       -1.963029    0.478496    0.000261
      4          6           0       -2.682834    1.707359    0.000545
      5          6           0       -4.099952    1.671850    0.000706
      6          6           0       -4.770532    0.478049    0.000595
      7          1           0       -0.002287   -0.423173   -0.000090
      8          1           0       -4.602701   -1.675771    0.000251
      9          1           0       -2.136408   -1.672830   -0.000081
     10          6           0       -0.545840    0.514012    0.000072
     11          6           0       -1.958058    2.925914    0.000627
     12          1           0       -4.643606    2.608951    0.000889
     13          1           0       -5.853077    0.459497    0.000732
     14          6           0       -0.588992    2.926628    0.000410
     15          6           0        0.124821    1.707667    0.000140
     16          1           0       -2.509175    3.858725    0.000879
     17          1           0       -0.043150    3.861677    0.000412
     18          1           0        1.207354    1.726310   -0.000013
 ---------------------------------------------------------------------
                    Distance matrix (angstroms):
                    1          2          3          4          5
     1  C    0.000000
     2  C    1.369151   0.000000
     3  C    2.422872   1.417738   0.000000
     4  C    2.807313   2.447460   1.424157   0.000000
     5  C    2.413008   2.795032   2.447557   1.417563   0.000000
     6  C    1.412443   2.412977   2.807503   2.422744   1.369248
     7  H    4.066890   2.703957   2.158129   3.424106   4.602172
     8  H    1.082719   2.131449   3.407160   3.889918   3.385163
     9  H    2.134590   1.083426   2.158302   3.424071   3.878452
    10  C    3.728407   2.481925   1.417634   2.447616   3.737954
    11  C    4.224821   3.737896   2.447423   1.417807   2.482012
    12  H    3.400739   3.878408   3.424080   2.158122   1.083382
    13  H    2.160419   3.385148   3.890094   3.406993   2.131489
    14  C    5.047297   4.224813   2.807370   2.422971   3.728445
    15  C    4.845663   3.728444   2.422804   2.807656   4.224925
    16  H    4.852872   4.602281   3.424065   2.158363   2.704254
    17  H    6.106682   5.307491   3.889967   3.407200   4.610095
    18  H    5.813549   4.610193   3.407106   3.890235   5.307586
                    6          7          8          9         10
     6  C    0.000000
     7  H    4.852666   0.000000
     8  H    2.160349   4.767894   0.000000
     9  H    3.400719   2.473078   2.466295   0.000000
    10  C    4.224845   1.083405   4.610128   2.704105   0.000000
    11  C    3.728546   3.878328   5.307508   4.602201   2.794930
    12  H    2.134679   5.543971   4.284917   4.961823   4.602223
    13  H    1.082704   5.916997   2.474431   4.284910   5.307517
    14  C    4.845701   3.400793   6.106713   4.852784   2.413002
    15  C    5.047420   2.134628   5.813530   4.067053   1.369160
    16  H    4.067273   4.961768   5.917220   5.544101   3.878375
    17  H    5.813525   4.285045   7.173063   5.917135   3.385196
    18  H    6.106823   2.466477   6.732823   4.768113   2.131515
                   11         12         13         14         15
    11  C    0.000000
    12  H    2.704188   0.000000
    13  H    4.610247   2.466368   0.000000
    14  C    1.369066   4.067039   5.813546   0.000000
    15  C    2.412988   4.852856   6.106816   1.412585   0.000000
    16  H    1.083451   2.473404   4.768273   2.134457   3.400733
    17  H    2.131320   4.767967   6.732761   1.082709   2.160549
    18  H    3.385098   5.917160   7.173180   2.160469   1.082693
                   16         17         18
    16  H    0.000000
    17  H    2.466027   0.000000
    18  H    4.284832   2.474581   0.000000
 Stoichiometry    C10H8
 Framework group  C1[X(C10H8)]
 Deg. of freedom    48
 Full point group                 C1      NOp   1
 RotChk:  IX=0 Diff= 5.05D-04
 Largest Abelian subgroup         C1      NOp   1
 Largest concise Abelian subgroup C1      NOp   1
                         Standard orientation:                         
 ---------------------------------------------------------------------
 Center     Atomic      Atomic             Coordinates (Angstroms)
 Number     Number       Type             X           Y           Z
 ---------------------------------------------------------------------
      1          6           0        2.422793   -0.706261    0.000014
      2          6           0        1.240945   -1.397498    0.000009
      3          6           0       -0.000072   -0.712038   -0.000021
      4          6           0        0.000149    0.712119   -0.000025
      5          6           0        1.240991    1.397534   -0.000005
      6          6           0        2.422885    0.706183    0.000012
      7          1           0       -1.236487   -2.480879   -0.000064
      8          1           0        3.366363   -1.237257    0.000008
      9          1           0        1.236591   -2.480916    0.000017
     10          6           0       -1.240980   -1.397484   -0.000013
     11          6           0       -1.241021    1.397446   -0.000016
     12          1           0        1.236628    2.480907    0.000026
     13          1           0        3.366440    1.237174    0.000014
     14          6           0       -2.422816    0.706285    0.000022
     15          6           0       -2.422870   -0.706300    0.000013
     16          1           0       -1.236777    2.480889   -0.000055
     17          1           0       -3.366321    1.237375    0.000090
     18          1           0       -3.366461   -1.237206    0.000027
 ---------------------------------------------------------------------
 Rotational constants (GHZ):           3.1421644           1.2400734           0.8891609
 Leave Link  202 at Tue Apr  9 18:06:27 2024, MaxMem= 67108864000 cpu:               0.2 elap:               0.0
 (Enter /apps/gaussian/g16-c01-avx2/g16/l301.exe)
 Standard basis: def2TZVP (5D, 7F)
 Ernie: Thresh=  0.10000D-02 Tol=  0.10000D-05 Strict=F.
 There are   408 symmetry adapted cartesian basis functions of A   symmetry.
 There are   358 symmetry adapted basis functions of A   symmetry.
   358 basis functions,   574 primitive gaussians,   408 cartesian basis functions
    34 alpha electrons       34 beta electrons
       nuclear repulsion energy       459.0389067500 Hartrees.
 IExCor=  402 DFT=T Ex+Corr=B3LYP ExCW=0 ScaHFX=  0.200000
 ScaDFX=  0.800000  0.720000  1.000000  0.810000 ScalE2=  1.000000  1.000000
 IRadAn=      5 IRanWt=     -1 IRanGd=            0 ICorTp=0 IEmpDi=  4
 NAtoms=   18 NActive=   18 NUniq=   18 SFac= 1.00D+00 NAtFMM=   60 NAOKFM=F Big=F
 Integral buffers will be    131072 words long.
 Raffenetti 2 integral format.
 Two-electron integral symmetry is turned on.
 Leave Link  301 at Tue Apr  9 18:06:27 2024, MaxMem= 67108864000 cpu:               1.1 elap:               0.1
 (Enter /apps/gaussian/g16-c01-avx2/g16/l302.exe)
 NPDir=0 NMtPBC=     1 NCelOv=     1 NCel=       1 NClECP=     1 NCelD=      1
         NCelK=      1 NCelE2=     1 NClLst=     1 CellRange=     0.0.
 One-electron integrals computed using PRISM.
 One-electron integral symmetry used in STVInt
   1 Symmetry operations used in ECPInt.
 ECPInt:  NShTT=   10153 NPrTT=   31120 LenC2=    9872 LenP2D=   23938.
 LDataN:  DoStor=T MaxTD1= 6 Len=  172
 NBasis=   358 RedAO= T EigKep=  6.49D-06  NBF=   358
 NBsUse=   358 1.00D-06 EigRej= -1.00D+00 NBFU=   358
 Precomputing XC quadrature grid using
 IXCGrd= 4 IRadAn=           5 IRanWt=          -1 IRanGd=           0 AccXCQ= 0.00D+00.
 Generated NRdTot=       0 NPtTot=           0 NUsed=           0 NTot=          32
 NSgBfM=   407   407   407   407   407 MxSgAt=    18 MxSgA2=    18.
 Leave Link  302 at Tue Apr  9 18:06:27 2024, MaxMem= 67108864000 cpu:              13.3 elap:               0.4
 (Enter /apps/gaussian/g16-c01-avx2/g16/l303.exe)
 DipDrv:  MaxL=1.
 Leave Link  303 at Tue Apr  9 18:06:27 2024, MaxMem= 67108864000 cpu:               1.3 elap:               0.1
 (Enter /apps/gaussian/g16-c01-avx2/g16/l401.exe)
 Initial guess from the checkpoint file:  "Naphthalene_n_1-1.chk"
 B after Tr=     0.000000    0.000000    0.000000
         Rot=    1.000000   -0.000000   -0.000000   -0.000164 Ang=  -0.02 deg.
 Guess basis will be translated and rotated to current coordinates.
 JPrj=2 DoOrth=T DoCkMO=T.
 Generating alternative initial guess.
 ExpMin= 9.52D-02 ExpMax= 1.36D+04 ExpMxC= 4.63D+02 IAcc=3 IRadAn=         5 AccDes= 0.00D+00
 Harris functional with IExCor=  402 and IRadAn=       5 diagonalized for initial guess.
 HarFok:  IExCor=  402 AccDes= 0.00D+00 IRadAn=         5 IDoV= 1 UseB2=F ITyADJ=14
 ICtDFT=  3500011 ScaDFX=  1.000000  1.000000  1.000000  1.000000
 FoFCou: FMM=F IPFlag=           0 FMFlag=      100000 FMFlg1=           0
         NFxFlg=           0 DoJE=T BraDBF=F KetDBF=T FulRan=T
         wScrn=  0.000000 ICntrl=       500 IOpCl=  0 I1Cent=   200000004 NGrid=           0
         NMat0=    1 NMatS0=      1 NMatT0=    0 NMatD0=    1 NMtDS0=    0 NMtDT0=    0
 Petite list used in FoFCou.
 Harris En= -386.087000187578    
 Leave Link  401 at Tue Apr  9 18:06:29 2024, MaxMem= 67108864000 cpu:              41.9 elap:               1.4
 (Enter /apps/gaussian/g16-c01-avx2/g16/l502.exe)
 Integral symmetry usage will be decided dynamically.
 Closed shell SCF:
 Using DIIS extrapolation, IDIIS=  1040.
 NGot= 67108864000 LenX= 67108513966 LenY= 67108347061
 Requested convergence on RMS density matrix=1.00D-08 within 128 cycles.
 Requested convergence on MAX density matrix=1.00D-06.
 Requested convergence on             energy=1.00D-06.
 No special actions if energy rises.
 Fock matrices will be formed incrementally for  20 cycles.
 Integral accuracy reduced to 1.0D-05 until final iterations.

 Cycle   1  Pass 0  IDiag  1:
 FoFJK:  IHMeth= 1 ICntrl=       0 DoSepK=F KAlg= 0 I1Cent=           0 FoldK=F
 IRaf= 940000000 NMat=       1 IRICut=       1 DoRegI=T DoRafI=F ISym2E= 0 IDoP0=0 IntGTp=1.
 FoFCou: FMM=F IPFlag=           0 FMFlag=      100000 FMFlg1=           0
         NFxFlg=           0 DoJE=F BraDBF=F KetDBF=F FulRan=T
         wScrn=  0.000000 ICntrl=         0 IOpCl=  0 I1Cent=           0 NGrid=           0
         NMat0=    1 NMatS0=      1 NMatT0=    0 NMatD0=    1 NMtDS0=    0 NMtDT0=    0
 Symmetry not used in FoFCou.
 E= -386.032669993549    
 DIIS: error= 1.19D-03 at cycle   1 NSaved=   1.
 NSaved= 1 IEnMin= 1 EnMin= -386.032669993549     IErMin= 1 ErrMin= 1.19D-03
 ErrMax= 1.19D-03  0.00D+00 EMaxC= 1.00D-01 BMatC= 4.76D-04 BMatP= 4.76D-04
 IDIUse=3 WtCom= 9.88D-01 WtEn= 1.19D-02
 Coeff-Com:  0.100D+01
 Coeff-En:   0.100D+01
 Coeff:      0.100D+01
 Gap=     0.715 Goal=   None    Shift=    0.000
 GapD=    0.715 DampG=2.000 DampE=1.000 DampFc=2.0000 IDamp=-1.
 RMSDP=2.22D-04 MaxDP=4.25D-03              OVMax= 4.26D-03

 Cycle   2  Pass 0  IDiag  1:
 RMSU=  2.22D-04    CP:  1.00D+00
 E= -386.033012601421     Delta-E=       -0.000342607872 Rises=F Damp=F
 DIIS: error= 5.34D-04 at cycle   2 NSaved=   2.
 NSaved= 2 IEnMin= 2 EnMin= -386.033012601421     IErMin= 2 ErrMin= 5.34D-04
 ErrMax= 5.34D-04  0.00D+00 EMaxC= 1.00D-01 BMatC= 4.67D-05 BMatP= 4.76D-04
 IDIUse=3 WtCom= 9.95D-01 WtEn= 5.34D-03
 Coeff-Com:  0.152D+00 0.848D+00
 Coeff-En:   0.000D+00 0.100D+01
 Coeff:      0.152D+00 0.848D+00
 Gap=     0.176 Goal=   None    Shift=    0.000
 RMSDP=4.38D-05 MaxDP=8.87D-04 DE=-3.43D-04 OVMax= 3.54D-03

 Cycle   3  Pass 0  IDiag  1:
 RMSU=  3.97D-05    CP:  9.99D-01  9.16D-01
 E= -386.033020421412     Delta-E=       -0.000007819991 Rises=F Damp=F
 DIIS: error= 6.15D-04 at cycle   3 NSaved=   3.
 NSaved= 3 IEnMin= 3 EnMin= -386.033020421412     IErMin= 2 ErrMin= 5.34D-04
 ErrMax= 6.15D-04  0.00D+00 EMaxC= 1.00D-01 BMatC= 3.94D-05 BMatP= 4.67D-05
 IDIUse=3 WtCom= 9.94D-01 WtEn= 6.15D-03
 Coeff-Com:  0.261D-01 0.477D+00 0.497D+00
 Coeff-En:   0.000D+00 0.456D+00 0.544D+00
 Coeff:      0.259D-01 0.477D+00 0.497D+00
 Gap=     0.176 Goal=   None    Shift=    0.000
 RMSDP=2.14D-05 MaxDP=5.78D-04 DE=-7.82D-06 OVMax= 2.49D-03

 Cycle   4  Pass 0  IDiag  1:
 RMSU=  1.95D-05    CP:  1.00D+00  8.81D-01  9.00D-01
 E= -386.033055911694     Delta-E=       -0.000035490282 Rises=F Damp=F
 DIIS: error= 2.23D-04 at cycle   4 NSaved=   4.
 NSaved= 4 IEnMin= 4 EnMin= -386.033055911694     IErMin= 4 ErrMin= 2.23D-04
 ErrMax= 2.23D-04  0.00D+00 EMaxC= 1.00D-01 BMatC= 3.67D-06 BMatP= 3.94D-05
 IDIUse=3 WtCom= 9.98D-01 WtEn= 2.23D-03
 Coeff-Com:  0.334D-02 0.205D+00 0.291D+00 0.501D+00
 Coeff-En:   0.000D+00 0.000D+00 0.272D-01 0.973D+00
 Coeff:      0.333D-02 0.204D+00 0.291D+00 0.502D+00
 Gap=     0.176 Goal=   None    Shift=    0.000
 RMSDP=1.30D-05 MaxDP=2.98D-04 DE=-3.55D-05 OVMax= 7.53D-04

 Cycle   5  Pass 0  IDiag  1:
 RMSU=  1.01D-05    CP:  1.00D+00  8.48D-01  9.55D-01  1.16D+00
 E= -386.033059157226     Delta-E=       -0.000003245532 Rises=F Damp=F
 DIIS: error= 6.05D-05 at cycle   5 NSaved=   5.
 NSaved= 5 IEnMin= 5 EnMin= -386.033059157226     IErMin= 5 ErrMin= 6.05D-05
 ErrMax= 6.05D-05  0.00D+00 EMaxC= 1.00D-01 BMatC= 3.21D-07 BMatP= 3.67D-06
 IDIUse=1 WtCom= 1.00D+00 WtEn= 0.00D+00
 Coeff-Com: -0.177D-02 0.536D-01 0.978D-01 0.274D+00 0.577D+00
 Coeff:     -0.177D-02 0.536D-01 0.978D-01 0.274D+00 0.577D+00
 Gap=     0.176 Goal=   None    Shift=    0.000
 RMSDP=1.17D-05 MaxDP=3.17D-04 DE=-3.25D-06 OVMax= 2.01D-04

 Cycle   6  Pass 0  IDiag  1:
 RMSU=  6.55D-06    CP:  1.00D+00  8.16D-01  9.54D-01  1.33D+00  1.57D+00
 E= -386.033059160068     Delta-E=       -0.000000002842 Rises=F Damp=F
 DIIS: error= 8.30D-06 at cycle   6 NSaved=   6.
 NSaved= 6 IEnMin= 6 EnMin= -386.033059160068     IErMin= 6 ErrMin= 8.30D-06
 ErrMax= 8.30D-06  0.00D+00 EMaxC= 1.00D-01 BMatC= 1.48D-08 BMatP= 3.21D-07
 IDIUse=1 WtCom= 1.00D+00 WtEn= 0.00D+00
 Coeff-Com: -0.963D-03 0.872D-02 0.212D-01 0.772D-01 0.241D+00 0.652D+00
 Coeff:     -0.963D-03 0.872D-02 0.212D-01 0.772D-01 0.241D+00 0.652D+00
 Gap=     0.176 Goal=   None    Shift=    0.000
 RMSDP=9.23D-06 MaxDP=3.07D-04 DE=-2.84D-09 OVMax= 4.02D-05

 Initial convergence to 1.0D-05 achieved.  Increase integral accuracy.
 Cycle   7  Pass 1  IDiag  1:
 E= -386.033051047572     Delta-E=        0.000008112496 Rises=F Damp=F
 DIIS: error= 2.12D-04 at cycle   1 NSaved=   1.
 NSaved= 1 IEnMin= 1 EnMin= -386.033051047572     IErMin= 1 ErrMin= 2.12D-04
 ErrMax= 2.12D-04  0.00D+00 EMaxC= 1.00D-01 BMatC= 4.44D-06 BMatP= 4.44D-06
 IDIUse=3 WtCom= 9.98D-01 WtEn= 2.12D-03
 Coeff-Com:  0.100D+01
 Coeff-En:   0.100D+01
 Coeff:      0.100D+01
 Gap=     0.176 Goal=   None    Shift=    0.000
 RMSDP=9.23D-06 MaxDP=3.07D-04 DE= 8.11D-06 OVMax= 1.59D-04

 Cycle   8  Pass 1  IDiag  1:
 RMSU=  1.60D-04    CP:  1.00D+00
 E= -386.033052455166     Delta-E=       -0.000001407594 Rises=F Damp=F
 DIIS: error= 7.38D-06 at cycle   2 NSaved=   2.
 NSaved= 2 IEnMin= 2 EnMin= -386.033052455166     IErMin= 2 ErrMin= 7.38D-06
[...]
    29204.7306    0.779004D+01    0.244322D+00    0.374204D-06    0.000000D+00
    29224.7306    0.746472D+01    0.229463D+00    0.270271D-06    0.000000D+00
    29244.7306    0.715380D+01    0.215540D+00    0.184799D-06    0.000000D+00
    29264.7306    0.685734D+01    0.202486D+00    0.685013D-07    0.000000D+00
    29284.7306    0.657565D+01    0.190247D+00    0.505372D-07    0.000000D+00
    29304.7306    0.630834D+01    0.178715D+00    0.365843D-07    0.000000D+00
    29324.7306    0.605515D+01    0.167846D+00    0.266034D-07    0.000000D+00
    29344.7306    0.581567D+01    0.157564D+00    0.189482D-07    0.000000D+00
    29364.7306    0.558886D+01    0.147801D+00    0.953366D-08    0.000000D+00
    29384.7306    0.537406D+01    0.138512D+00    0.692184D-08    0.000000D+00
    29404.7306    0.517009D+01    0.129652D+00    0.498113D-08    0.000000D+00
    29424.7306    0.497594D+01    0.121161D+00    0.355296D-08    0.000000D+00
    29444.7306    0.479038D+01    0.113056D+00    0.251190D-08    0.000000D+00
    29464.7306    0.461209D+01    0.105290D+00    0.176022D-08    0.000000D+00
    29484.7306    0.444017D+01    0.978483D-01    0.122260D-08    0.000000D+00
    29504.7306    0.427329D+01    0.907220D-01    0.841691D-09    0.000000D+00
    29524.7306    0.411032D+01    0.839190D-01    0.648005D-12    0.000000D+00
    29544.7306    0.395065D+01    0.774294D-01    0.498721D-12    0.000000D+00
    29564.7306    0.379313D+01    0.712503D-01    0.381127D-12    0.000000D+00
    29584.7306    0.363720D+01    0.653998D-01    0.287181D-12    0.000000D+00
    29604.7306    0.348254D+01    0.598664D-01    0.216650D-12    0.000000D+00
    29624.7306    0.332880D+01    0.546519D-01    0.162294D-12    0.000000D+00
    29644.7306    0.317588D+01    0.497555D-01    0.116723D-12    0.000000D+00
    29664.7306    0.302400D+01    0.451760D-01    0.864464D-13    0.000000D+00
    29684.7306    0.287325D+01    0.409143D-01    0.629657D-13    0.000000D+00
    29704.7306    0.272397D+01    0.369619D-01    0.456838D-13    0.000000D+00
    29724.7306    0.257619D+01    0.333066D-01    0.331313D-13    0.000000D+00
    29744.7306    0.243155D+01    0.299457D-01    0.167527D-13    0.000000D+00
    29764.7306    0.228992D+01    0.268634D-01    0.122504D-13    0.000000D+00
    29784.7306    0.215181D+01    0.240484D-01    0.887684D-14    0.000000D+00
    29804.7306    0.201783D+01    0.214930D-01    0.637711D-14    0.000000D+00
    29824.7306    0.188838D+01    0.191745D-01    0.454083D-14    0.000000D+00
    29844.7306    0.176402D+01    0.170772D-01    0.320475D-14    0.000000D+00
    29864.7306    0.164508D+01    0.151866D-01    0.224182D-14    0.000000D+00
    29884.7306    0.153177D+01    0.134848D-01    0.155436D-14    0.000000D+00
    29904.7306    0.142437D+01    0.119599D-01    0.106820D-14    0.000000D+00
    29924.7306    0.132286D+01    0.105939D-01    0.000000D+00    0.000000D+00
    29944.7306    0.122739D+01    0.937002D-02    0.000000D+00    0.000000D+00
    29964.7306    0.113796D+01    0.827895D-02    0.000000D+00    0.000000D+00
    29984.7306    0.105432D+01    0.730713D-02    0.000000D+00    0.000000D+00
    30004.7306    0.976423D+00    0.644102D-02    0.000000D+00    0.000000D+00
    30024.7306    0.904080D+00    0.567248D-02    0.000000D+00    0.000000D+00
    30044.7306    0.836954D+00    0.498686D-02    0.000000D+00    0.000000D+00
    30064.7306    0.775004D+00    0.437986D-02    0.000000D+00    0.000000D+00
    30084.7306    0.717877D+00    0.383844D-02    0.000000D+00    0.000000D+00
    30104.7306    0.665266D+00    0.335758D-02    0.000000D+00    0.000000D+00
    30124.7306    0.616880D+00    0.293414D-02    0.000000D+00    0.000000D+00
    30144.7306    0.572424D+00    0.255872D-02    0.000000D+00    0.000000D+00
    30164.7306    0.531585D+00    0.222647D-02    0.000000D+00    0.000000D+00
    30184.7306    0.494187D+00    0.193170D-02    0.000000D+00    0.000000D+00
    30204.7306    0.459898D+00    0.167161D-02    0.000000D+00    0.000000D+00
    30224.7306    0.428439D+00    0.143608D-02    0.000000D+00    0.000000D+00
    30244.7306    0.399538D+00    0.123673D-02    0.000000D+00    0.000000D+00
    30264.7306    0.372976D+00    0.106083D-02    0.000000D+00    0.000000D+00
    30284.7306    0.348520D+00    0.906588D-03    0.000000D+00    0.000000D+00
    30304.7306    0.325943D+00    0.771274D-03    0.000000D+00    0.000000D+00
    30324.7306    0.305097D+00    0.653853D-03    0.000000D+00    0.000000D+00
    30344.7306    0.285708D+00    0.551697D-03    0.000000D+00    0.000000D+00
    30364.7306    0.267670D+00    0.463092D-03    0.000000D+00    0.000000D+00
    30384.7306    0.250795D+00    0.387137D-03    0.000000D+00    0.000000D+00
    30404.7306    0.234933D+00    0.319115D-03    0.000000D+00    0.000000D+00
    30424.7306    0.219948D+00    0.264383D-03    0.000000D+00    0.000000D+00
    30444.7306    0.205738D+00    0.217634D-03    0.000000D+00    0.000000D+00
    30464.7306    0.192380D+00    0.177878D-03    0.000000D+00    0.000000D+00
    30484.7306    0.179626D+00    0.144038D-03    0.000000D+00    0.000000D+00
    30504.7306    0.167594D+00    0.116535D-03    0.000000D+00    0.000000D+00
    30524.7306    0.156123D+00    0.935287D-04    0.000000D+00    0.000000D+00
    30544.7306    0.145196D+00    0.746854D-04    0.000000D+00    0.000000D+00
    30564.7306    0.134791D+00    0.592336D-04    0.000000D+00    0.000000D+00
    30584.7306    0.124884D+00    0.466555D-04    0.000000D+00    0.000000D+00
    30604.7306    0.115454D+00    0.364851D-04    0.000000D+00    0.000000D+00
    30624.7306    0.106522D+00    0.283134D-04    0.000000D+00    0.000000D+00
    30644.7306    0.980778D-01    0.216035D-04    0.000000D+00    0.000000D+00
    30664.7306    0.900864D-01    0.162001D-04    0.000000D+00    0.000000D+00
    30684.7306    0.825465D-01    0.123334D-04    0.000000D+00    0.000000D+00
    30704.7306    0.754393D-01    0.890670D-05    0.000000D+00    0.000000D+00
    30724.7306    0.687612D-01    0.670041D-05    0.000000D+00    0.000000D+00
    30744.7306    0.624787D-01    0.499482D-05    0.000000D+00    0.000000D+00
    30764.7306    0.566087D-01    0.366247D-05    0.000000D+00    0.000000D+00
    30784.7306    0.511381D-01    0.268132D-05    0.000000D+00    0.000000D+00
    30804.7306    0.460514D-01    0.195209D-05    0.000000D+00    0.000000D+00
    30824.7306    0.413054D-01    0.140896D-05    0.000000D+00    0.000000D+00
    30844.7306    0.369214D-01    0.963651D-06    0.000000D+00    0.000000D+00
    30864.7306    0.328741D-01    0.685080D-06    0.000000D+00    0.000000D+00
    30884.7306    0.291467D-01    0.428938D-06    0.000000D+00    0.000000D+00
    30904.7306    0.257285D-01    0.300734D-06    0.000000D+00    0.000000D+00
    30924.7306    0.225933D-01    0.208986D-06    0.000000D+00    0.000000D+00
    30944.7306    0.197521D-01    0.143945D-06    0.000000D+00    0.000000D+00
    30964.7306    0.171781D-01    0.440345D-11    0.000000D+00    0.000000D+00
    30984.7306    0.148549D-01    0.302591D-11    0.000000D+00    0.000000D+00
    31004.7306    0.127724D-01    0.215874D-11    0.000000D+00    0.000000D+00
    31024.7306    0.109200D-01    0.152745D-11    0.000000D+00    0.000000D+00
    31044.7306    0.927828D-02    0.101424D-11    0.000000D+00    0.000000D+00
    31064.7306    0.783574D-02    0.706008D-12    0.000000D+00    0.000000D+00
    31084.7306    0.656681D-02    0.486847D-12    0.000000D+00    0.000000D+00
    31104.7306    0.547361D-02    0.443907D-16    0.000000D+00    0.000000D+00
    31124.7306    0.453127D-02    0.291652D-16    0.000000D+00    0.000000D+00
    31144.7306    0.371937D-02    0.204646D-16    0.000000D+00    0.000000D+00
    31164.7306    0.303588D-02    0.142338D-16    0.000000D+00    0.000000D+00
    31184.7306    0.245965D-02    0.963738D-17    0.000000D+00    0.000000D+00
    31204.7306    0.197904D-02    0.217689D-18    0.000000D+00    0.000000D+00
    31224.7306    0.158034D-02    0.154704D-18    0.000000D+00    0.000000D+00
    31244.7306    0.125148D-02    0.109074D-18    0.000000D+00    0.000000D+00
    31264.7306    0.971269D-03    0.762241D-19    0.000000D+00    0.000000D+00
    31284.7306    0.758794D-03    0.527969D-19    0.000000D+00    0.000000D+00
    31304.7306    0.588621D-03    0.362469D-19    0.000000D+00    0.000000D+00
    31324.7306    0.452293D-03    0.737827D-23    0.000000D+00    0.000000D+00
    31344.7306    0.345166D-03    0.000000D+00    0.000000D+00    0.000000D+00
    31364.7306    0.261359D-03    0.000000D+00    0.000000D+00    0.000000D+00
    31384.7306    0.195147D-03    0.000000D+00    0.000000D+00    0.000000D+00
    31404.7306    0.144996D-03    0.000000D+00    0.000000D+00    0.000000D+00
    31424.7306    0.107202D-03    0.000000D+00    0.000000D+00    0.000000D+00
    31444.7306    0.741646D-04    0.000000D+00    0.000000D+00    0.000000D+00
    31464.7306    0.541541D-04    0.000000D+00    0.000000D+00    0.000000D+00
    31484.7306    0.392031D-04    0.000000D+00    0.000000D+00    0.000000D+00
    31504.7306    0.280005D-04    0.000000D+00    0.000000D+00    0.000000D+00
    31524.7306    0.199341D-04    0.000000D+00    0.000000D+00    0.000000D+00
    31544.7306    0.140637D-04    0.000000D+00    0.000000D+00    0.000000D+00
    31564.7306    0.984396D-05    0.000000D+00    0.000000D+00    0.000000D+00
    31584.7306    0.683229D-05    0.000000D+00    0.000000D+00    0.000000D+00
    31604.7306    0.594448D-06    0.000000D+00    0.000000D+00    0.000000D+00
    31624.7306    0.423428D-06    0.000000D+00    0.000000D+00    0.000000D+00
    31644.7306    0.300081D-06    0.000000D+00    0.000000D+00    0.000000D+00
    31664.7306    0.213013D-06    0.000000D+00    0.000000D+00    0.000000D+00
    31684.7306    0.149871D-06    0.000000D+00    0.000000D+00    0.000000D+00
    31704.7306    0.104513D-06    0.000000D+00    0.000000D+00    0.000000D+00
    31724.7306    0.722195D-07    0.000000D+00    0.000000D+00    0.000000D+00
    31744.7306    0.691222D-10    0.000000D+00    0.000000D+00    0.000000D+00
    31764.7306    0.502124D-10    0.000000D+00    0.000000D+00    0.000000D+00
    31784.7306    0.361150D-10    0.000000D+00    0.000000D+00    0.000000D+00
    31804.7306    0.257880D-10    0.000000D+00    0.000000D+00    0.000000D+00
    31824.7306    0.182544D-10    0.000000D+00    0.000000D+00    0.000000D+00
    31844.7306    0.128075D-10    0.000000D+00    0.000000D+00    0.000000D+00
    31864.7306    0.864483D-11    0.000000D+00    0.000000D+00    0.000000D+00
    31884.7306    0.595765D-11    0.000000D+00    0.000000D+00    0.000000D+00
    31904.7306    0.706876D-14    0.000000D+00    0.000000D+00    0.000000D+00
    31924.7306    0.487083D-14    0.000000D+00    0.000000D+00    0.000000D+00
    31944.7306    0.414737D-18    0.000000D+00    0.000000D+00    0.000000D+00
    31964.7306    0.291791D-18    0.000000D+00    0.000000D+00    0.000000D+00
    31984.7306    0.203480D-18    0.000000D+00    0.000000D+00    0.000000D+00
    32004.7306    0.140644D-18    0.000000D+00    0.000000D+00    0.000000D+00
    32024.7306    0.425171D-20    0.000000D+00    0.000000D+00    0.000000D+00
    32044.7306    0.292407D-20    0.000000D+00    0.000000D+00    0.000000D+00
    32064.7306    0.000000D+00    0.000000D+00    0.000000D+00    0.000000D+00
    32084.7306    0.000000D+00    0.000000D+00    0.000000D+00    0.000000D+00
    32104.7306    0.000000D+00    0.000000D+00    0.000000D+00    0.000000D+00
    32124.7306    0.000000D+00    0.000000D+00    0.000000D+00    0.000000D+00
    32144.7306    0.000000D+00    0.000000D+00    0.000000D+00    0.000000D+00
    32164.7306    0.000000D+00    0.000000D+00    0.000000D+00    0.000000D+00
    32184.7306    0.000000D+00    0.000000D+00    0.000000D+00    0.000000D+00
    32204.7306    0.000000D+00    0.000000D+00    0.000000D+00    0.000000D+00
    32224.7306    0.000000D+00    0.000000D+00    0.000000D+00    0.000000D+00
    32244.7306    0.000000D+00    0.000000D+00    0.000000D+00    0.000000D+00
    32264.7306    0.000000D+00    0.000000D+00    0.000000D+00    0.000000D+00
    32284.7306    0.000000D+00    0.000000D+00    0.000000D+00    0.000000D+00
    32304.7306    0.000000D+00    0.000000D+00    0.000000D+00    0.000000D+00
    32324.7306    0.000000D+00    0.000000D+00    0.000000D+00    0.000000D+00
    32344.7306    0.000000D+00    0.000000D+00    0.000000D+00    0.000000D+00
    32364.7306    0.000000D+00    0.000000D+00    0.000000D+00    0.000000D+00
    32384.7306    0.000000D+00    0.000000D+00    0.000000D+00    0.000000D+00
    32404.7306    0.000000D+00    0.000000D+00    0.000000D+00    0.000000D+00
    32424.7306    0.000000D+00    0.000000D+00    0.000000D+00    0.000000D+00
    32444.7306    0.000000D+00    0.000000D+00    0.000000D+00    0.000000D+00
    32464.7306    0.000000D+00    0.000000D+00    0.000000D+00    0.000000D+00
    32484.7306    0.000000D+00    0.000000D+00    0.000000D+00    0.000000D+00
    32504.7306    0.000000D+00    0.000000D+00    0.000000D+00    0.000000D+00
    32524.7306    0.000000D+00    0.000000D+00    0.000000D+00    0.000000D+00
    32544.7306    0.000000D+00    0.000000D+00    0.000000D+00    0.000000D+00
    32564.7306    0.000000D+00    0.000000D+00    0.000000D+00    0.000000D+00
    32584.7306    0.000000D+00    0.000000D+00    0.000000D+00    0.000000D+00
    32604.7306    0.000000D+00    0.000000D+00    0.000000D+00    0.000000D+00
    32624.7306    0.000000D+00    0.000000D+00    0.000000D+00    0.000000D+00
    32644.7306    0.000000D+00    0.000000D+00    0.000000D+00    0.000000D+00
    32664.7306    0.000000D+00    0.000000D+00    0.000000D+00    0.000000D+00
    32684.7306    0.000000D+00    0.000000D+00    0.000000D+00    0.000000D+00
    32704.7306    0.000000D+00    0.000000D+00    0.000000D+00    0.000000D+00
    32724.7306    0.000000D+00    0.000000D+00    0.000000D+00    0.000000D+00
    32744.7306    0.000000D+00    0.000000D+00    0.000000D+00    0.000000D+00
    32764.7306    0.000000D+00    0.000000D+00    0.000000D+00    0.000000D+00
    32784.7306    0.000000D+00    0.000000D+00    0.000000D+00    0.000000D+00
    32804.7306    0.000000D+00    0.000000D+00    0.000000D+00    0.000000D+00
    32824.7306    0.000000D+00    0.000000D+00    0.000000D+00    0.000000D+00
    32844.7306    0.000000D+00    0.000000D+00    0.000000D+00    0.000000D+00
    32864.7306    0.000000D+00    0.000000D+00    0.000000D+00    0.000000D+00
    32884.7306    0.000000D+00    0.000000D+00    0.000000D+00    0.000000D+00
    32904.7306    0.000000D+00    0.000000D+00    0.000000D+00    0.000000D+00
    32924.7306    0.000000D+00    0.000000D+00    0.000000D+00    0.000000D+00
    32944.7306    0.000000D+00    0.000000D+00    0.000000D+00    0.000000D+00
    32964.7306    0.000000D+00    0.000000D+00    0.000000D+00    0.000000D+00
    32984.7306    0.000000D+00    0.000000D+00    0.000000D+00    0.000000D+00
    33004.7306    0.000000D+00    0.000000D+00    0.000000D+00    0.000000D+00
    33024.7306    0.000000D+00    0.000000D+00    0.000000D+00    0.000000D+00
    33044.7306    0.000000D+00    0.000000D+00    0.000000D+00    0.000000D+00
    33064.7306    0.000000D+00    0.000000D+00    0.000000D+00    0.000000D+00
    33084.7306    0.000000D+00    0.000000D+00    0.000000D+00    0.000000D+00
    33104.7306    0.000000D+00    0.000000D+00    0.000000D+00    0.000000D+00
    33124.7306    0.000000D+00    0.000000D+00    0.000000D+00    0.000000D+00
 -----------------------------------------------------------------------------

 Leave Link  718 at Tue Apr  9 19:01:53 2024, MaxMem= 67108864000 cpu:            1629.6 elap:              51.3
 (Enter /apps/gaussian/g16-c01-avx2/g16/l9999.exe)

 ----------------------------------------------------------------------

 Electric dipole moment (input orientation):
 (Debye = 10**-18 statcoulomb cm , SI units = C m)
                  (au)            (Debye)         (10**-30 SI)
   Tot        0.000000D+00      0.000000D+00      0.000000D+00
   x          0.000000D+00      0.000000D+00      0.000000D+00
   y          0.000000D+00      0.000000D+00      0.000000D+00
   z          0.000000D+00      0.000000D+00      0.000000D+00

 Dipole polarizability, Alpha (input orientation).
 (esu units = cm**3 , SI units = C**2 m**2 J**-1)
 Alpha(0;0):
               (au)            (10**-24 esu)      (10**-40 SI)
   iso        0.114709D+03      0.169981D+02      0.189129D+02
   aniso      0.931633D+02      0.138054D+02      0.153606D+02
   xx         0.154044D+03      0.228270D+02      0.253985D+02
   yx         0.200916D+02      0.297726D+01      0.331265D+01
   yy         0.131497D+03      0.194858D+02      0.216809D+02
   zx        -0.946976D-02     -0.140327D-02     -0.156135D-02
   zy         0.822175D-02      0.121834D-02      0.135558D-02
   zz         0.585856D+02      0.868149D+01      0.965946D+01

 ----------------------------------------------------------------------

 Dipole orientation:
     6         -2.64020515         -2.76391431         -2.85675346
     6         -2.12898464         -2.79934873         -0.31787267
     6         -0.53612137         -0.95461731          0.78885910
     6          0.53612309          0.95460863         -0.78885314
     6         -0.03112745          0.93610347         -3.40478918
     6         -1.58017944         -0.87643063         -4.41652531
     1         -0.78367419         -2.38592497          4.60009792
     1         -3.86118864         -4.18581091         -3.67778478
     1         -2.94150278         -4.24716962          0.88137798
     6          0.03113098         -0.93611177          3.40480577
     6          2.12899481          2.79936009          0.31786838
     1          0.78367023          2.38590660         -4.60010201
     1         -1.99788899         -0.86800622         -6.41955652
     6          2.64019879          2.76391807          2.85674273
     6          1.58017411          0.87643468          4.41651865
     1          2.94150094          4.24716206         -0.88140629
     1          3.86117027          4.18580300          3.67781967
     1          1.99789071          0.86802685          6.41954874

 Electric dipole moment (dipole orientation):
 (Debye = 10**-18 statcoulomb cm , SI units = C m)
                  (au)            (Debye)         (10**-30 SI)
   Tot        0.000000D+00      0.000000D+00      0.000000D+00
   x          0.000000D+00      0.000000D+00      0.000000D+00
   y          0.000000D+00      0.000000D+00      0.000000D+00
   z          0.000000D+00      0.000000D+00      0.000000D+00

 Dipole polarizability, Alpha (dipole orientation).
 (esu units = cm**3 , SI units = C**2 m**2 J**-1)
 Alpha(0;0):
               (au)            (10**-24 esu)      (10**-40 SI)
   iso        0.114709D+03      0.169981D+02      0.189129D+02
   aniso      0.931633D+02      0.138054D+02      0.153606D+02
   xx         0.976979D+02      0.144773D+02      0.161082D+02
   yx         0.476729D+02      0.706439D+01      0.786019D+01
   yy         0.121434D+03      0.179946D+02      0.200217D+02
   zx         0.189002D+02      0.280072D+01      0.311623D+01
   zy         0.655831D+01      0.971842D+00      0.108132D+01
   zz         0.124995D+03      0.185224D+02      0.206089D+02

 ----------------------------------------------------------------------

 This type of calculation cannot be archived.


 EVANS BOLDLY PUT 50 ATM. OF ETHYLENE IN A CELL WITH 25 ATM. OF OXYGEN.
 THE APPARATUS SUBSEQUENTLY BLEW UP, BUT LUCKILY NOT BEFORE HE
 OBTAINED THE SPECTRA SHOWN IN FIGURE 8.
 A.J.MERER AND R.S.MULLIKEN, CHEM.REV. 69, 645 (1969)
 Job cpu time:       0 days  0 hours 27 minutes 21.0 seconds.
 Elapsed time:       0 days  0 hours  0 minutes 51.7 seconds.
 File lengths (MBytes):  RWF=      6 Int=      0 D2E=      0 Chk=     11 Scr=      1
 Normal termination of Gaussian 16 at Tue Apr  9 19:01:55 2024.
