 Entering Gaussian System, Link 0=g16
 Input=Naphthalene_c_20-500.gjf
 Output=Naphthalene_c_20-500.log
 Initial command:
 /apps/gaussian/g16-c01-avx2/g16/l1.exe "/var/tmp/pbs.9194950.pbs/Gau-2535276.inp" -scrdir="/var/tmp/pbs.9194950.pbs/"
 Entering Link 1 = /apps/gaussian/g16-c01-avx2/g16/l1.exe PID=   2535277.
  
 Copyright (c) 1988-2019, Gaussian, Inc.  All Rights Reserved.
  
 This is part of the Gaussian(R) 16 program.  It is based on
 the Gaussian(R) 09 system (copyright 2009, Gaussian, Inc.),
 the Gaussian(R) 03 system (copyright 2003, Gaussian, Inc.),
 the Gaussian(R) 98 system (copyright 1998, Gaussian, Inc.),
 the Gaussian(R) 94 system (copyright 1995, Gaussian, Inc.),
 the Gaussian 92(TM) system (copyright 1992, Gaussian, Inc.),
 the Gaussian 90(TM) system (copyright 1990, Gaussian, Inc.),
 the Gaussian 88(TM) system (copyright 1988, Gaussian, Inc.),
 the Gaussian 86(TM) system (copyright 1986, Carnegie Mellon
 University), and the Gaussian 82(TM) system (copyright 1983,
 Carnegie Mellon University). Gaussian is a federally registered
 trademark of Gaussian, Inc.
  
 This software contains proprietary and confidential information,
 including trade secrets, belonging to Gaussian, Inc.
  
 This software is provided under written license and may be
 used, copied, transmitted, or stored only in accord with that
 written license.
  
 The following legend is applicable only to US Government
 contracts under FAR:
  
                    RESTRICTED RIGHTS LEGEND
  
 Use, reproduction and disclosure by the US Government is
 subject to restrictions as set forth in subparagraphs (a)
 and (c) of the Commercial Computer Software - Restricted
 Rights clause in FAR 52.227-19.
  
 Gaussian, Inc.
 340 Quinnipiac St., Bldg. 40, Wallingford CT 06492
  
  
 ---------------------------------------------------------------
 Warning -- This program may not be used in any manner that
 competes with the business of Gaussian, Inc. or will provide
 assistance to any competitor of Gaussian, Inc.  The licensee
 of this program is prohibited from giving any competitor of
 Gaussian, Inc. access to this program.  By using this program,
 the user acknowledges that Gaussian, Inc. is engaged in the
 business of creating and licensing software in the field of
 computational chemistry and represents and warrants to the
 licensee that it is not a competitor of Gaussian, Inc. and that
 it will not use this program in any manner prohibited above.
 ---------------------------------------------------------------
  

 Cite this work as:
 Gaussian 16, Revision C.01,
 M. J. Frisch, G. W. Trucks, H. B. Schlegel, G. E. Scuseria, 
 M. A. Robb, J. R. Cheeseman, G. Scalmani, V. Barone, 
 G. A. Petersson, H. Nakatsuji, X. Li, M. Caricato, A. V. Marenich, 
 J. Bloino, B. G. Janesko, R. Gomperts, B. Mennucci, H. P. Hratchian, 
 J. V. Ortiz, A. F. Izmaylov, J. L. Sonnenberg, D. Williams-Young, 
 F. Ding, F. Lipparini, F. Egidi, J. Goings, B. Peng, A. Petrone, 
 T. Henderson, D. Ranasinghe, V. G. Zakrzewski, J. Gao, N. Rega, 
 G. Zheng, W. Liang, M. Hada, M. Ehara, K. Toyota, R. Fukuda, 
 J. Hasegawa, M. Ishida, T. Nakajima, Y. Honda, O. Kitao, H. Nakai, 
 T. Vreven, K. Throssell, J. A. Montgomery, Jr., J. E. Peralta, 
 F. Ogliaro, M. J. Bearpark, J. J. Heyd, E. N. Brothers, K. N. Kudin, 
 V. N. Staroverov, T. A. Keith, R. Kobayashi, J. Normand, 
 K. Raghavachari, A. P. Rendell, J. C. Burant, S. S. Iyengar, 
 J. Tomasi, M. Cossi, J. M. Millam, M. Klene, C. Adamo, R. Cammi, 
 J. W. Ochterski, R. L. Martin, K. Morokuma, O. Farkas, 
 J. B. Foresman, and D. J. Fox, Gaussian, Inc., Wallingford CT, 2019.
 
 ******************************************
 Gaussian 16:  ES64L-G16RevC.01  3-Jul-2019
                 3-Apr-2024 
 ******************************************
 %Mem=250GB
 %nprocshared=32
 Will use up to   32 processors via shared memory.
 %chk=Naphthalene_c_20-500-1.chk
 --------------------------------------------
 #p opt freq b3lyp/def2tzvp geom=connectivity
 --------------------------------------------
 1/18=20,19=15,26=3,38=1,57=2/1,3;
 2/9=110,12=2,17=6,18=5,40=1/2;
 3/5=44,7=101,11=2,25=1,30=1,71=1,74=-5/1,2,3;
 4//1;
 5/5=2,38=5/2;
 6/7=2,8=2,9=2,10=2,28=1/1;
 7//1,2,3,16;
 1/18=20,19=15,26=3/3(2);
 2/9=110/2;
 99//99;
 2/9=110/2;
 3/5=44,7=101,11=2,25=1,30=1,71=1,74=-5/1,2,3;
 4/5=5,16=3,69=1/1;
 5/5=2,38=5/2;
 7//1,2,3,16;
 1/18=20,19=15,26=3/3(-5);
 2/9=110/2;
 6/7=2,8=2,9=2,10=2,19=2,28=1/1;
 99/9=1/99;
 Leave Link    1 at Wed Apr  3 15:27:08 2024, MaxMem= 33554432000 cpu:               0.5 elap:               0.0
 (Enter /apps/gaussian/g16-c01-avx2/g16/l101.exe)
 ----------------------------------------------------------------------
 Ground state optimization and frequency calculation for cationic napht
 halene.
 ----------------------------------------------------------------------
 Symbolic Z-matrix:
 Charge =  1 Multiplicity = 2
 C                    -4.05902  -0.74403   0.00026 
 C                    -2.68622  -0.74403   0.00026 
 C                    -1.96428   0.4811    0.00026 
 C                    -2.68215   1.70496   0.00063 
 C                    -4.10357   1.67559   0.00079 
 C                    -4.77507   0.47761   0.0005 
 H                     0.00479  -0.44387   0.00002 
 H                    -4.61975  -1.69037   0.00018 
 H                    -2.12143  -1.68835   0.00004 
 C                    -0.54255   0.51064   0. 
 C                    -1.9594    2.92969   0.00075 
 H                    -4.65081   2.63004   0.00087 
 H                    -5.87471   0.45125   0.0006 
 C                    -0.58654   2.92976   0.00048 
 C                     0.12947   1.70786   0.00002 
 H                    -2.52386   3.87423   0.00101 
 H                    -0.02585   3.87609   0.0003 
 H                     1.2291    1.73433  -0.00017 
 
 ITRead=  0  0  0  0  0  0  0  0  0  0  0  0  0  0  0  0  0  0
 MicOpt= -1 -1 -1 -1 -1 -1 -1 -1 -1 -1 -1 -1 -1 -1 -1 -1 -1 -1
 NAtoms=     18 NQM=       18 NQMF=       0 NMMI=      0 NMMIF=      0
                NMic=       0 NMicF=      0.
                    Isotopes and Nuclear Properties:
 (Nuclear quadrupole moments (NQMom) in fm**2, nuclear magnetic moments (NMagM)
  in nuclear magnetons)

  Atom         1           2           3           4           5           6           7           8           9          10
 IAtWgt=          12          12          12          12          12          12           1           1           1          12
 AtmWgt=  12.0000000  12.0000000  12.0000000  12.0000000  12.0000000  12.0000000   1.0078250   1.0078250   1.0078250  12.0000000
 NucSpn=           0           0           0           0           0           0           1           1           1           0
 AtZEff=  -0.0000000  -0.0000000  -0.0000000  -0.0000000  -0.0000000  -0.0000000  -0.0000000  -0.0000000  -0.0000000  -0.0000000
 NQMom=    0.0000000   0.0000000   0.0000000   0.0000000   0.0000000   0.0000000   0.0000000   0.0000000   0.0000000   0.0000000
 NMagM=    0.0000000   0.0000000   0.0000000   0.0000000   0.0000000   0.0000000   2.7928460   2.7928460   2.7928460   0.0000000
 AtZNuc=   6.0000000   6.0000000   6.0000000   6.0000000   6.0000000   6.0000000   1.0000000   1.0000000   1.0000000   6.0000000

  Atom        11          12          13          14          15          16          17          18
 IAtWgt=          12           1           1          12          12           1           1           1
 AtmWgt=  12.0000000   1.0078250   1.0078250  12.0000000  12.0000000   1.0078250   1.0078250   1.0078250
 NucSpn=           0           1           1           0           0           1           1           1
 AtZEff=  -0.0000000  -0.0000000  -0.0000000  -0.0000000  -0.0000000  -0.0000000  -0.0000000  -0.0000000
 NQMom=    0.0000000   0.0000000   0.0000000   0.0000000   0.0000000   0.0000000   0.0000000   0.0000000
 NMagM=    0.0000000   2.7928460   2.7928460   0.0000000   0.0000000   2.7928460   2.7928460   2.7928460
 AtZNuc=   6.0000000   1.0000000   1.0000000   6.0000000   6.0000000   1.0000000   1.0000000   1.0000000
 Leave Link  101 at Wed Apr  3 15:27:09 2024, MaxMem= 33554432000 cpu:               4.8 elap:               0.2
 (Enter /apps/gaussian/g16-c01-avx2/g16/l103.exe)

 GradGradGradGradGradGradGradGradGradGradGradGradGradGradGradGradGradGrad
 Berny optimization.
 Initialization pass.
                           ----------------------------
                           !    Initial Parameters    !
                           ! (Angstroms and Degrees)  !
 --------------------------                            --------------------------
 ! Name  Definition              Value          Derivative Info.                !
 --------------------------------------------------------------------------------
 ! R1    R(1,2)                  1.3728         estimate D2E/DX2                !
 ! R2    R(1,6)                  1.416          estimate D2E/DX2                !
 ! R3    R(1,8)                  1.1            estimate D2E/DX2                !
 ! R4    R(2,3)                  1.422          estimate D2E/DX2                !
 ! R5    R(2,9)                  1.1003         estimate D2E/DX2                !
 ! R6    R(3,4)                  1.4189         estimate D2E/DX2                !
 ! R7    R(3,10)                 1.422          estimate D2E/DX2                !
 ! R8    R(4,5)                  1.4217         estimate D2E/DX2                !
 ! R9    R(4,11)                 1.4221         estimate D2E/DX2                !
 ! R10   R(5,6)                  1.3733         estimate D2E/DX2                !
 ! R11   R(5,12)                 1.1002         estimate D2E/DX2                !
 ! R12   R(6,13)                 1.1            estimate D2E/DX2                !
 ! R13   R(7,10)                 1.1003         estimate D2E/DX2                !
 ! R14   R(10,15)                1.3729         estimate D2E/DX2                !
 ! R15   R(11,14)                1.3729         estimate D2E/DX2                !
 ! R16   R(11,16)                1.1003         estimate D2E/DX2                !
 ! R17   R(14,15)                1.4162         estimate D2E/DX2                !
 ! R18   R(14,17)                1.1            estimate D2E/DX2                !
 ! R19   R(15,18)                1.0999         estimate D2E/DX2                !
 ! A1    A(2,1,6)              120.3763         estimate D2E/DX2                !
 ! A2    A(2,1,8)              120.6477         estimate D2E/DX2                !
 ! A3    A(6,1,8)              118.976          estimate D2E/DX2                !
 ! A4    A(1,2,3)              120.5099         estimate D2E/DX2                !
 ! A5    A(1,2,9)              120.8832         estimate D2E/DX2                !
 ! A6    A(3,2,9)              118.6069         estimate D2E/DX2                !
 ! A7    A(2,3,4)              119.0959         estimate D2E/DX2                !
 ! A8    A(2,3,10)             121.7004         estimate D2E/DX2                !
 ! A9    A(4,3,10)             119.2037         estimate D2E/DX2                !
 ! A10   A(3,4,5)              119.2103         estimate D2E/DX2                !
 ! A11   A(3,4,11)             119.0596         estimate D2E/DX2                !
 ! A12   A(5,4,11)             121.73           estimate D2E/DX2                !
 ! A13   A(4,5,6)              120.4559         estimate D2E/DX2                !
 ! A14   A(4,5,12)             118.6441         estimate D2E/DX2                !
 ! A15   A(6,5,12)             120.8999         estimate D2E/DX2                !
 ! A16   A(1,6,5)              120.3516         estimate D2E/DX2                !
 ! A17   A(1,6,13)             119.0027         estimate D2E/DX2                !
 ! A18   A(5,6,13)             120.6457         estimate D2E/DX2                !
 ! A19   A(3,10,7)             118.6409         estimate D2E/DX2                !
 ! A20   A(3,10,15)            120.4968         estimate D2E/DX2                !
 ! A21   A(7,10,15)            120.8623         estimate D2E/DX2                !
 ! A22   A(4,11,14)            120.5491         estimate D2E/DX2                !
 ! A23   A(4,11,16)            118.5913         estimate D2E/DX2                !
 ! A24   A(14,11,16)           120.8596         estimate D2E/DX2                !
 ! A25   A(11,14,15)           120.3669         estimate D2E/DX2                !
 ! A26   A(11,14,17)           120.6492         estimate D2E/DX2                !
 ! A27   A(15,14,17)           118.9839         estimate D2E/DX2                !
 ! A28   A(10,15,14)           120.3239         estimate D2E/DX2                !
 ! A29   A(10,15,18)           120.685          estimate D2E/DX2                !
 ! A30   A(14,15,18)           118.991          estimate D2E/DX2                !
 ! D1    D(6,1,2,3)             -0.011          estimate D2E/DX2                !
 ! D2    D(6,1,2,9)           -179.9971         estimate D2E/DX2                !
 ! D3    D(8,1,2,3)            179.9952         estimate D2E/DX2                !
 ! D4    D(8,1,2,9)              0.009          estimate D2E/DX2                !
 ! D5    D(2,1,6,5)             -0.0029         estimate D2E/DX2                !
 ! D6    D(2,1,6,13)          -179.9936         estimate D2E/DX2                !
 ! D7    D(8,1,6,5)            179.991          estimate D2E/DX2                !
 ! D8    D(8,1,6,13)             0.0003         estimate D2E/DX2                !
 ! D9    D(1,2,3,4)              0.0171         estimate D2E/DX2                !
 ! D10   D(1,2,3,10)          -179.9875         estimate D2E/DX2                !
 ! D11   D(9,2,3,4)           -179.9964         estimate D2E/DX2                !
 ! D12   D(9,2,3,10)            -0.0011         estimate D2E/DX2                !
 ! D13   D(2,3,4,5)             -0.0096         estimate D2E/DX2                !
 ! D14   D(2,3,4,11)           179.9947         estimate D2E/DX2                !
 ! D15   D(10,3,4,5)           179.995          estimate D2E/DX2                !
 ! D16   D(10,3,4,11)           -0.0008         estimate D2E/DX2                !
 ! D17   D(2,3,10,7)            -0.0135         estimate D2E/DX2                !
 ! D18   D(2,3,10,15)         -179.9995         estimate D2E/DX2                !
 ! D19   D(4,3,10,7)           179.9818         estimate D2E/DX2                !
 ! D20   D(4,3,10,15)           -0.0042         estimate D2E/DX2                !
 ! D21   D(3,4,5,6)             -0.004          estimate D2E/DX2                !
 ! D22   D(3,4,5,12)          -179.9878         estimate D2E/DX2                !
 ! D23   D(11,4,5,6)           179.9916         estimate D2E/DX2                !
 ! D24   D(11,4,5,12)            0.0078         estimate D2E/DX2                !
 ! D25   D(3,4,11,14)            0.0014         estimate D2E/DX2                !
 ! D26   D(3,4,11,16)          179.9984         estimate D2E/DX2                !
 ! D27   D(5,4,11,14)         -179.9942         estimate D2E/DX2                !
 ! D28   D(5,4,11,16)            0.0027         estimate D2E/DX2                !
 ! D29   D(4,5,6,1)              0.0104         estimate D2E/DX2                !
 ! D30   D(4,5,6,13)          -179.999          estimate D2E/DX2                !
 ! D31   D(12,5,6,1)           179.9938         estimate D2E/DX2                !
 ! D32   D(12,5,6,13)           -0.0156         estimate D2E/DX2                !
 ! D33   D(3,10,15,14)           0.0084         estimate D2E/DX2                !
 ! D34   D(3,10,15,18)         179.9987         estimate D2E/DX2                !
 ! D35   D(7,10,15,14)        -179.9773         estimate D2E/DX2                !
 ! D36   D(7,10,15,18)           0.013          estimate D2E/DX2                !
 ! D37   D(4,11,14,15)           0.0027         estimate D2E/DX2                !
 ! D38   D(4,11,14,17)         179.9839         estimate D2E/DX2                !
 ! D39   D(16,11,14,15)       -179.9941         estimate D2E/DX2                !
 ! D40   D(16,11,14,17)         -0.013          estimate D2E/DX2                !
 ! D41   D(11,14,15,10)         -0.0078         estimate D2E/DX2                !
 ! D42   D(11,14,15,18)       -179.9982         estimate D2E/DX2                !
 ! D43   D(17,14,15,10)       -179.9892         estimate D2E/DX2                !
 ! D44   D(17,14,15,18)          0.0203         estimate D2E/DX2                !
 --------------------------------------------------------------------------------
 Trust Radius=3.00D-01 FncErr=1.00D-07 GrdErr=1.00D-06 EigMax=2.50D+02 EigMin=1.00D-04
 Number of steps in this run=    103 maximum allowed number of steps=    108.
 GradGradGradGradGradGradGradGradGradGradGradGradGradGradGradGradGradGrad

 Leave Link  103 at Wed Apr  3 15:27:09 2024, MaxMem= 33554432000 cpu:               0.3 elap:               0.0
 (Enter /apps/gaussian/g16-c01-avx2/g16/l202.exe)
                          Input orientation:                          
 ---------------------------------------------------------------------
 Center     Atomic      Atomic             Coordinates (Angstroms)
 Number     Number       Type             X           Y           Z
 ---------------------------------------------------------------------
      1          6           0       -4.059019   -0.744026    0.000263
      2          6           0       -2.686218   -0.744026    0.000263
      3          6           0       -1.964280    0.481095    0.000263
      4          6           0       -2.682150    1.704961    0.000633
      5          6           0       -4.103566    1.675588    0.000787
      6          6           0       -4.775071    0.477613    0.000497
      7          1           0        0.004793   -0.443870    0.000020
      8          1           0       -4.619750   -1.690372    0.000183
      9          1           0       -2.121429   -1.688348    0.000035
     10          6           0       -0.542553    0.510638    0.000000
     11          6           0       -1.959400    2.929687    0.000748
     12          1           0       -4.650807    2.630044    0.000869
     13          1           0       -5.874708    0.451246    0.000599
     14          6           0       -0.586539    2.929755    0.000475
     15          6           0        0.129473    1.707863    0.000016
     16          1           0       -2.523856    3.874228    0.001008
     17          1           0       -0.025847    3.876086    0.000297
     18          1           0        1.229101    1.734328   -0.000166
 ---------------------------------------------------------------------
                    Distance matrix (angstroms):
                    1          2          3          4          5
     1  C    0.000000
     2  C    1.372801   0.000000
     3  C    2.426696   1.422011   0.000000
     4  C    2.809503   2.448990   1.418868   0.000000
     5  C    2.420024   2.804177   2.450175   1.421719   0.000000
     6  C    1.416027   2.419857   2.810793   2.426253   1.373340
     7  H    4.074882   2.707699   2.175502   3.440514   4.622847
     8  H    1.099995   2.152700   3.430275   3.909294   3.405310
     9  H    2.155458   1.100332   2.175127   3.439325   3.904476
    10  C    3.733593   2.483844   1.422034   2.450364   3.746722
    11  C    4.231379   3.744921   2.448597   1.422083   2.483991
    12  H    3.425575   3.904351   3.440263   2.175176   1.100209
    13  H    2.173799   3.405164   3.910542   3.429902   2.153127
    14  C    5.055174   4.231468   2.809645   2.427284   3.733954
    15  C    4.853373   3.733614   2.426677   2.811625   4.233162
    16  H    4.866723   4.621107   3.438965   2.175035   2.707305
    17  H    6.132855   5.331323   3.909410   3.430704   4.633571
    18  H    5.840073   4.633785   3.430492   3.911361   5.332991
                    6          7          8          9         10
     6  C    0.000000
     7  H    4.867877   0.000000
     8  H    2.173542   4.789589   0.000000
     9  H    3.425376   2.463645   2.498322   0.000000
    10  C    4.232647   1.100306   4.633355   2.707100   0.000000
    11  C    3.733721   3.903709   5.331267   4.620877   2.803436
    12  H    2.156015   5.578849   4.320528   5.004624   4.622730
    13  H    1.099953   5.947249   2.482226   4.320297   5.332486
    14  C    4.853535   3.425058   6.132892   4.866494   2.419517
    15  C    5.056488   2.155342   5.839788   4.074409   1.372941
    16  H    4.074919   5.004002   5.946221   5.577114   3.903755
    17  H    5.839927   4.320065   7.217299   5.945956   3.404883
    18  H    6.134282   2.498695   6.777730   4.789652   2.153178
                   11         12         13         14         15
    11  C    0.000000
    12  H    2.708036   0.000000
    13  H    4.633822   2.499019   0.000000
    14  C    1.372861   4.075304   5.840183   0.000000
    15  C    2.419968   4.868418   6.134271   1.416225   0.000000
    16  H    1.100349   2.464125   4.790096   2.155279   3.425389
    17  H    2.152742   4.789872   6.777810   1.099963   2.173779
    18  H    3.405205   5.947741   7.218754   2.173843   1.099946
                   16         17         18
    16  H    0.000000
    17  H    2.498010   0.000000
    18  H    4.320169   2.482342   0.000000
 Stoichiometry    C10H8(1+,2)
 Framework group  C1[X(C10H8)]
 Deg. of freedom    48
 Full point group                 C1      NOp   1
 Largest Abelian subgroup         C1      NOp   1
 Largest concise Abelian subgroup C1      NOp   1
                         Standard orientation:                         
 ---------------------------------------------------------------------
 Center     Atomic      Atomic             Coordinates (Angstroms)
 Number     Number       Type             X           Y           Z
 ---------------------------------------------------------------------
      1          6           0        2.426104   -0.708815    0.000060
      2          6           0        1.241200   -1.402057   -0.000132
      3          6           0       -0.000592   -0.709186   -0.000027
      4          6           0        0.000990    0.709681   -0.000089
      5          6           0        1.242689    1.402120   -0.000049
      6          6           0        2.427242    0.707212    0.000133
      7          1           0       -1.233064   -2.501900   -0.000215
      8          1           0        3.387976   -1.242474    0.000059
      9          1           0        1.230581   -2.502338   -0.000143
     10          6           0       -1.242645   -1.401635    0.000042
     11          6           0       -1.241303    1.401800   -0.000099
     12          1           0        1.233044    2.502286    0.000106
     13          1           0        3.389685    1.239752    0.000180
     14          6           0       -2.426293    0.708587   -0.000018
     15          6           0       -2.427269   -0.707638    0.000134
     16          1           0       -1.231082    2.502102   -0.000121
     17          1           0       -3.388124    1.242252    0.000241
     18          1           0       -3.389754   -1.240089    0.000166
 ---------------------------------------------------------------------
 Rotational constants (GHZ):           3.1209900           1.2352643           0.8849914
 Leave Link  202 at Wed Apr  3 15:27:10 2024, MaxMem= 33554432000 cpu:               0.5 elap:               0.1
 (Enter /apps/gaussian/g16-c01-avx2/g16/l301.exe)
 Standard basis: def2TZVP (5D, 7F)
 Ernie: Thresh=  0.10000D-02 Tol=  0.10000D-05 Strict=F.
 There are   408 symmetry adapted cartesian basis functions of A   symmetry.
 There are   358 symmetry adapted basis functions of A   symmetry.
   358 basis functions,   574 primitive gaussians,   408 cartesian basis functions
    34 alpha electrons       33 beta electrons
       nuclear repulsion energy       457.5564693960 Hartrees.
 IExCor=  402 DFT=T Ex+Corr=B3LYP ExCW=0 ScaHFX=  0.200000
 ScaDFX=  0.800000  0.720000  1.000000  0.810000 ScalE2=  1.000000  1.000000
 IRadAn=      5 IRanWt=     -1 IRanGd=            0 ICorTp=0 IEmpDi=  4
 NAtoms=   18 NActive=   18 NUniq=   18 SFac= 1.00D+00 NAtFMM=   60 NAOKFM=F Big=F
 Integral buffers will be    131072 words long.
 Raffenetti 2 integral format.
 Two-electron integral symmetry is turned on.
 Leave Link  301 at Wed Apr  3 15:27:10 2024, MaxMem= 33554432000 cpu:               1.5 elap:               0.1
 (Enter /apps/gaussian/g16-c01-avx2/g16/l302.exe)
 NPDir=0 NMtPBC=     1 NCelOv=     1 NCel=       1 NClECP=     1 NCelD=      1
         NCelK=      1 NCelE2=     1 NClLst=     1 CellRange=     0.0.
 One-electron integrals computed using PRISM.
 One-electron integral symmetry used in STVInt
   1 Symmetry operations used in ECPInt.
 ECPInt:  NShTT=   10153 NPrTT=   31120 LenC2=    9872 LenP2D=   23930.
 LDataN:  DoStor=T MaxTD1= 6 Len=  172
 NBasis=   358 RedAO= T EigKep=  6.75D-06  NBF=   358
 NBsUse=   358 1.00D-06 EigRej= -1.00D+00 NBFU=   358
 Precomputing XC quadrature grid using
 IXCGrd= 4 IRadAn=           5 IRanWt=          -1 IRanGd=           0 AccXCQ= 0.00D+00.
 Generated NRdTot=       0 NPtTot=           0 NUsed=           0 NTot=          32
 NSgBfM=   407   407   407   407   407 MxSgAt=    18 MxSgA2=    18.
 Leave Link  302 at Wed Apr  3 15:27:11 2024, MaxMem= 33554432000 cpu:               9.8 elap:               0.3
 (Enter /apps/gaussian/g16-c01-avx2/g16/l303.exe)
 DipDrv:  MaxL=1.
 Leave Link  303 at Wed Apr  3 15:27:12 2024, MaxMem= 33554432000 cpu:               1.0 elap:               0.1
 (Enter /apps/gaussian/g16-c01-avx2/g16/l401.exe)
 ExpMin= 9.52D-02 ExpMax= 1.36D+04 ExpMxC= 4.63D+02 IAcc=3 IRadAn=         5 AccDes= 0.00D+00
 Harris functional with IExCor=  402 and IRadAn=       5 diagonalized for initial guess.
 HarFok:  IExCor=  402 AccDes= 0.00D+00 IRadAn=         5 IDoV= 1 UseB2=F ITyADJ=14
 ICtDFT=  3500011 ScaDFX=  1.000000  1.000000  1.000000  1.000000
 FoFCou: FMM=F IPFlag=           0 FMFlag=      100000 FMFlg1=           0
         NFxFlg=           0 DoJE=T BraDBF=F KetDBF=T FulRan=T
         wScrn=  0.000000 ICntrl=       500 IOpCl=  0 I1Cent=   200000004 NGrid=           0
         NMat0=    1 NMatS0=      1 NMatT0=    0 NMatD0=    1 NMtDS0=    0 NMtDT0=    0
 Petite list used in FoFCou.
 Harris En= -385.756750552232    
 JPrj=0 DoOrth=F DoCkMO=F.
 Initial guess <Sx>= 0.0000 <Sy>= 0.0000 <Sz>= 0.5000 <S**2>= 0.7500 S= 0.5000
 Leave Link  401 at Wed Apr  3 15:27:13 2024, MaxMem= 33554432000 cpu:              29.0 elap:               1.0
 (Enter /apps/gaussian/g16-c01-avx2/g16/l502.exe)
 Integral symmetry usage will be decided dynamically.
 UHF open shell SCF:
 Using DIIS extrapolation, IDIIS=  1040.
 NGot= 33554432000 LenX= 33554081966 LenY= 33553915061
 Requested convergence on RMS density matrix=1.00D-08 within 128 cycles.
 Requested convergence on MAX density matrix=1.00D-06.
 Requested convergence on             energy=1.00D-06.
 No special actions if energy rises.
 Fock matrices will be formed incrementally for  20 cycles.
 Integral accuracy reduced to 1.0D-05 until final iterations.

 Cycle   1  Pass 0  IDiag  1:
 FoFJK:  IHMeth= 1 ICntrl=       0 DoSepK=F KAlg= 0 I1Cent=           0 FoldK=F
 IRaf= 940000000 NMat=       1 IRICut=       1 DoRegI=T DoRafI=F ISym2E= 0 IDoP0=0 IntGTp=1.
 FoFCou: FMM=F IPFlag=           0 FMFlag=      100000 FMFlg1=           0
         NFxFlg=           0 DoJE=F BraDBF=F KetDBF=F FulRan=T
         wScrn=  0.000000 ICntrl=         0 IOpCl=  1 I1Cent=           0 NGrid=           0
         NMat0=    1 NMatS0=      1 NMatT0=    0 NMatD0=    1 NMtDS0=    0 NMtDT0=    0
 Symmetry not used in FoFCou.
 E= -385.594905535304    
 DIIS: error= 2.83D-02 at cycle   1 NSaved=   1.
 NSaved= 1 IEnMin= 1 EnMin= -385.594905535304     IErMin= 1 ErrMin= 2.83D-02
 ErrMax= 2.83D-02  0.00D+00 EMaxC= 1.00D-01 BMatC= 6.15D-01 BMatP= 6.15D-01
 IDIUse=3 WtCom= 7.17D-01 WtEn= 2.83D-01
 Coeff-Com:  0.100D+01
 Coeff-En:   0.100D+01
 Coeff:      0.100D+01
 Gap=     0.181 Goal=   None    Shift=    0.000
 Gap=     0.064 Goal=   None    Shift=    0.000
 GapD=    0.064 DampG=0.500 DampE=0.500 DampFc=0.2500 IDamp=-1.
 Damping current iteration by 2.50D-01
 RMSDP=2.32D-03 MaxDP=4.69D-02              OVMax= 1.25D-01

 Cycle   2  Pass 0  IDiag  1:
 RMSU=  5.48D-04    CP:  9.77D-01
 E= -385.644227021382     Delta-E=       -0.049321486078 Rises=F Damp=T
 DIIS: error= 1.67D-02 at cycle   2 NSaved=   2.
 NSaved= 2 IEnMin= 2 EnMin= -385.644227021382     IErMin= 2 ErrMin= 1.67D-02
 ErrMax= 1.67D-02  0.00D+00 EMaxC= 1.00D-01 BMatC= 2.14D-01 BMatP= 6.15D-01
 IDIUse=3 WtCom= 8.33D-01 WtEn= 1.67D-01
 Coeff-Com: -0.122D+01 0.222D+01
 Coeff-En:   0.000D+00 0.100D+01
 Coeff:     -0.102D+01 0.202D+01
 Gap=     0.182 Goal=   None    Shift=    0.000
 Gap=     0.076 Goal=   None    Shift=    0.000
 RMSDP=1.17D-03 MaxDP=3.47D-02 DE=-4.93D-02 OVMax= 6.53D-02

 Cycle   3  Pass 0  IDiag  1:
 RMSU=  5.84D-04    CP:  9.34D-01  2.73D+00
 E= -385.737178454997     Delta-E=       -0.092951433615 Rises=F Damp=F
 DIIS: error= 4.41D-03 at cycle   3 NSaved=   3.
 NSaved= 3 IEnMin= 3 EnMin= -385.737178454997     IErMin= 3 ErrMin= 4.41D-03
 ErrMax= 4.41D-03  0.00D+00 EMaxC= 1.00D-01 BMatC= 8.71D-03 BMatP= 2.14D-01
 IDIUse=3 WtCom= 9.56D-01 WtEn= 4.41D-02
 Coeff-Com: -0.378D+00 0.646D+00 0.732D+00
 Coeff-En:   0.000D+00 0.000D+00 0.100D+01
 Coeff:     -0.362D+00 0.618D+00 0.744D+00
 Gap=     0.182 Goal=   None    Shift=    0.000
 Gap=     0.070 Goal=   None    Shift=    0.000
 RMSDP=2.08D-04 MaxDP=5.42D-03 DE=-9.30D-02 OVMax= 2.21D-02

 Cycle   4  Pass 0  IDiag  1:
 RMSU=  2.06D-04    CP:  9.36D-01  2.68D+00  1.01D+00
 E= -385.738763477928     Delta-E=       -0.001585022931 Rises=F Damp=F
 DIIS: error= 2.16D-03 at cycle   4 NSaved=   4.
 NSaved= 4 IEnMin= 4 EnMin= -385.738763477928     IErMin= 4 ErrMin= 2.16D-03
 ErrMax= 2.16D-03  0.00D+00 EMaxC= 1.00D-01 BMatC= 2.57D-03 BMatP= 8.71D-03
 IDIUse=3 WtCom= 9.78D-01 WtEn= 2.16D-02
 Coeff-Com: -0.103D+00 0.165D+00 0.370D+00 0.568D+00
 Coeff-En:   0.000D+00 0.000D+00 0.162D+00 0.838D+00
 Coeff:     -0.101D+00 0.161D+00 0.365D+00 0.574D+00
 Gap=     0.182 Goal=   None    Shift=    0.000
 Gap=     0.075 Goal=   None    Shift=    0.000
 RMSDP=6.82D-05 MaxDP=2.01D-03 DE=-1.59D-03 OVMax= 1.28D-02

 Cycle   5  Pass 0  IDiag  1:
 RMSU=  5.64D-05    CP:  9.35D-01  2.73D+00  1.02D+00  8.75D-01
 E= -385.739327364395     Delta-E=       -0.000563886468 Rises=F Damp=F
 DIIS: error= 1.03D-03 at cycle   5 NSaved=   5.
 NSaved= 5 IEnMin= 5 EnMin= -385.739327364395     IErMin= 5 ErrMin= 1.03D-03
 ErrMax= 1.03D-03  0.00D+00 EMaxC= 1.00D-01 BMatC= 2.63D-04 BMatP= 2.57D-03
 IDIUse=3 WtCom= 9.90D-01 WtEn= 1.03D-02
 Coeff-Com: -0.128D-01 0.167D-01 0.103D+00 0.287D+00 0.606D+00
 Coeff-En:   0.000D+00 0.000D+00 0.000D+00 0.157D-01 0.984D+00
 Coeff:     -0.127D-01 0.165D-01 0.102D+00 0.284D+00 0.610D+00
 Gap=     0.182 Goal=   None    Shift=    0.000
 Gap=     0.075 Goal=   None    Shift=    0.000
 RMSDP=2.20D-05 MaxDP=7.87D-04 DE=-5.64D-04 OVMax= 4.54D-03

 Cycle   6  Pass 0  IDiag  1:
 RMSU=  1.66D-05    CP:  9.35D-01  2.74D+00  1.03D+00  8.80D-01  7.81D-01
 E= -385.739393921352     Delta-E=       -0.000066556956 Rises=F Damp=F
 DIIS: error= 3.64D-04 at cycle   6 NSaved=   6.
 NSaved= 6 IEnMin= 6 EnMin= -385.739393921352     IErMin= 6 ErrMin= 3.64D-04
 ErrMax= 3.64D-04  0.00D+00 EMaxC= 1.00D-01 BMatC= 3.48D-05 BMatP= 2.63D-04
 IDIUse=3 WtCom= 9.96D-01 WtEn= 3.64D-03
 Coeff-Com:  0.234D-02-0.584D-02 0.295D-01 0.110D+00 0.323D+00 0.540D+00
 Coeff-En:   0.000D+00 0.000D+00 0.000D+00 0.000D+00 0.000D+00 0.100D+01
 Coeff:      0.233D-02-0.582D-02 0.294D-01 0.110D+00 0.322D+00 0.542D+00
 Gap=     0.182 Goal=   None    Shift=    0.000
 Gap=     0.075 Goal=   None    Shift=    0.000
 RMSDP=9.53D-06 MaxDP=4.37D-04 DE=-6.66D-05 OVMax= 1.63D-03

 Initial convergence to 1.0D-05 achieved.  Increase integral accuracy.
 Cycle   7  Pass 1  IDiag  1:
 E= -385.739387699450     Delta-E=        0.000006221902 Rises=F Damp=F
 DIIS: error= 2.53D-04 at cycle   1 NSaved=   1.
 NSaved= 1 IEnMin= 1 EnMin= -385.739387699450     IErMin= 1 ErrMin= 2.53D-04
 ErrMax= 2.53D-04  0.00D+00 EMaxC= 1.00D-01 BMatC= 3.20D-05 BMatP= 3.20D-05
 IDIUse=3 WtCom= 9.97D-01 WtEn= 2.53D-03
 Coeff-Com:  0.100D+01
 Coeff-En:   0.100D+01
 Coeff:      0.100D+01
 Gap=     0.182 Goal=   None    Shift=    0.000
 Gap=     0.075 Goal=   None    Shift=    0.000
 RMSDP=9.53D-06 MaxDP=4.37D-04 DE= 6.22D-06 OVMax= 1.65D-03

 Cycle   8  Pass 1  IDiag  1:
 RMSU=  4.38D-04    CP:  9.96D-01
 E= -385.739388946219     Delta-E=       -0.000001246769 Rises=F Damp=F
 DIIS: error= 2.39D-04 at cycle   2 NSaved=   2.
 NSaved= 2 IEnMin= 2 EnMin= -385.739388946219     IErMin= 2 ErrMin= 2.39D-04
 ErrMax= 2.39D-04  0.00D+00 EMaxC= 1.00D-01 BMatC= 1.69D-05 BMatP= 3.20D-05
 IDIUse=3 WtCom= 9.98D-01 WtEn= 2.39D-03
 Coeff-Com:  0.384D+00 0.616D+00
 Coeff-En:   0.398D+00 0.602D+00
 Coeff:      0.384D+00 0.616D+00
 Gap=     0.182 Goal=   None    Shift=    0.000
 Gap=     0.075 Goal=   None    Shift=    0.000
 RMSDP=7.86D-06 MaxDP=3.43D-04 DE=-1.25D-06 OVMax= 1.33D-03

 Cycle   9  Pass 1  IDiag  1:
 RMSU=  6.66D-06    CP:  9.96D-01  1.01D+00
 E= -385.739390980320     Delta-E=       -0.000002034101 Rises=F Damp=F
 DIIS: error= 1.85D-04 at cycle   3 NSaved=   3.
 NSaved= 3 IEnMin= 3 EnMin= -385.739390980320     IErMin= 3 ErrMin= 1.85D-04
 ErrMax= 1.85D-04  0.00D+00 EMaxC= 1.00D-01 BMatC= 9.52D-06 BMatP= 1.69D-05
 IDIUse=3 WtCom= 9.98D-01 WtEn= 1.85D-03
 Coeff-Com: -0.928D-02 0.428D+00 0.581D+00
 Coeff-En:   0.000D+00 0.382D+00 0.618D+00
 Coeff:     -0.926D-02 0.428D+00 0.581D+00
 Gap=     0.182 Goal=   None    Shift=    0.000
 Gap=     0.075 Goal=   None    Shift=    0.000
 RMSDP=4.02D-06 MaxDP=1.64D-04 DE=-2.03D-06 OVMax= 6.69D-04

 Cycle  10  Pass 1  IDiag  1:
 RMSU=  1.82D-06    CP:  9.96D-01  1.02D+00  6.26D-01
 E= -385.739393572795     Delta-E=       -0.000002592476 Rises=F Damp=F
 DIIS: error= 3.10D-05 at cycle   4 NSaved=   4.
 NSaved= 4 IEnMin= 4 EnMin= -385.739393572795     IErMin= 4 ErrMin= 3.10D-05
 ErrMax= 3.10D-05  0.00D+00 EMaxC= 1.00D-01 BMatC= 2.53D-07 BMatP= 9.52D-06
 IDIUse=1 WtCom= 1.00D+00 WtEn= 0.00D+00
 Coeff-Com: -0.147D-01 0.190D+00 0.284D+00 0.541D+00
 Coeff:     -0.147D-01 0.190D+00 0.284D+00 0.541D+00
 Gap=     0.182 Goal=   None    Shift=    0.000
 Gap=     0.075 Goal=   None    Shift=    0.000
 RMSDP=6.39D-07 MaxDP=2.98D-05 DE=-2.59D-06 OVMax= 1.88D-04

 Cycle  11  Pass 1  IDiag  1:
 RMSU=  5.97D-07    CP:  9.96D-01  1.02D+00  6.58D-01  1.02D+00
 E= -385.739393645625     Delta-E=       -0.000000072830 Rises=F Damp=F
 DIIS: error= 1.10D-05 at cycle   5 NSaved=   5.
 NSaved= 5 IEnMin= 5 EnMin= -385.739393645625     IErMin= 5 ErrMin= 1.10D-05
 ErrMax= 1.10D-05  0.00D+00 EMaxC= 1.00D-01 BMatC= 4.85D-08 BMatP= 2.53D-07
 IDIUse=1 WtCom= 1.00D+00 WtEn= 0.00D+00
 Coeff-Com: -0.143D-02-0.147D+00-0.184D+00 0.215D+00 0.112D+01
 Coeff:     -0.143D-02-0.147D+00-0.184D+00 0.215D+00 0.112D+01
 Gap=     0.182 Goal=   None    Shift=    0.000
 Gap=     0.075 Goal=   None    Shift=    0.000
 RMSDP=6.64D-07 MaxDP=3.55D-05 DE=-7.28D-08 OVMax= 1.43D-04

 Cycle  12  Pass 1  IDiag  1:
 RMSU=  4.51D-07    CP:  9.96D-01  1.02D+00  6.72D-01  1.28D+00  1.16D+00
 E= -385.739393669439     Delta-E=       -0.000000023814 Rises=F Damp=F
 DIIS: error= 1.04D-05 at cycle   6 NSaved=   6.
 NSaved= 6 IEnMin= 6 EnMin= -385.739393669439     IErMin= 6 ErrMin= 1.04D-05
 ErrMax= 1.04D-05  0.00D+00 EMaxC= 1.00D-01 BMatC= 2.82D-08 BMatP= 4.85D-08
 IDIUse=1 WtCom= 1.00D+00 WtEn= 0.00D+00
 Coeff-Com:  0.433D-03-0.119D+00-0.154D+00 0.948D-01 0.775D+00 0.403D+00
 Coeff:      0.433D-03-0.119D+00-0.154D+00 0.948D-01 0.775D+00 0.403D+00
 Gap=     0.182 Goal=   None    Shift=    0.000
 Gap=     0.075 Goal=   None    Shift=    0.000
 RMSDP=2.07D-07 MaxDP=1.11D-05 DE=-2.38D-08 OVMax= 5.64D-05

 Cycle  13  Pass 1  IDiag  1:
 RMSU=  1.72D-07    CP:  9.96D-01  1.02D+00  6.73D-01  1.30D+00  1.30D+00
                    CP:  8.53D-01
 E= -385.739393677943     Delta-E=       -0.000000008504 Rises=F Damp=F
 DIIS: error= 1.54D-06 at cycle   7 NSaved=   7.
 NSaved= 7 IEnMin= 7 EnMin= -385.739393677943     IErMin= 7 ErrMin= 1.54D-06
 ErrMax= 1.54D-06  0.00D+00 EMaxC= 1.00D-01 BMatC= 1.26D-09 BMatP= 2.82D-08
 IDIUse=1 WtCom= 1.00D+00 WtEn= 0.00D+00
 Coeff-Com:  0.403D-03-0.483D-01-0.628D-01 0.247D-01 0.292D+00 0.226D+00
 Coeff-Com:  0.568D+00
 Coeff:      0.403D-03-0.483D-01-0.628D-01 0.247D-01 0.292D+00 0.226D+00
 Coeff:      0.568D+00
 Gap=     0.182 Goal=   None    Shift=    0.000
 Gap=     0.075 Goal=   None    Shift=    0.000
 RMSDP=4.50D-08 MaxDP=1.90D-06 DE=-8.50D-09 OVMax= 1.32D-05

 Cycle  14  Pass 1  IDiag  1:
 RMSU=  3.30D-08    CP:  9.96D-01  1.02D+00  6.74D-01  1.30D+00  1.30D+00
                    CP:  9.00D-01  8.98D-01
 E= -385.739393678295     Delta-E=       -0.000000000351 Rises=F Damp=F
 DIIS: error= 5.19D-07 at cycle   8 NSaved=   8.
 NSaved= 8 IEnMin= 8 EnMin= -385.739393678295     IErMin= 8 ErrMin= 5.19D-07
 ErrMax= 5.19D-07  0.00D+00 EMaxC= 1.00D-01 BMatC= 6.29D-11 BMatP= 1.26D-09
 IDIUse=1 WtCom= 1.00D+00 WtEn= 0.00D+00
 Coeff-Com:  0.171D-03-0.179D-01-0.232D-01 0.742D-02 0.106D+00 0.916D-01
 Coeff-Com:  0.274D+00 0.562D+00
 Coeff:      0.171D-03-0.179D-01-0.232D-01 0.742D-02 0.106D+00 0.916D-01
 Coeff:      0.274D+00 0.562D+00
 Gap=     0.182 Goal=   None    Shift=    0.000
 Gap=     0.075 Goal=   None    Shift=    0.000
 RMSDP=1.45D-08 MaxDP=5.83D-07 DE=-3.51D-10 OVMax= 5.73D-06

 Cycle  15  Pass 1  IDiag  1:
 RMSU=  1.29D-08    CP:  9.96D-01  1.02D+00  6.74D-01  1.30D+00  1.30D+00
                    CP:  9.04D-01  9.13D-01  9.01D-01
 E= -385.739393678308     Delta-E=       -0.000000000014 Rises=F Damp=F
 DIIS: error= 4.09D-07 at cycle   9 NSaved=   9.
 NSaved= 9 IEnMin= 9 EnMin= -385.739393678308     IErMin= 9 ErrMin= 4.09D-07
 ErrMax= 4.09D-07  0.00D+00 EMaxC= 1.00D-01 BMatC= 3.18D-11 BMatP= 6.29D-11
 IDIUse=1 WtCom= 1.00D+00 WtEn= 0.00D+00
 Coeff-Com: -0.287D-04 0.549D-02 0.710D-02-0.422D-02-0.339D-01-0.190D-01
 Coeff-Com: -0.158D-01 0.428D+00 0.632D+00
 Coeff:     -0.287D-04 0.549D-02 0.710D-02-0.422D-02-0.339D-01-0.190D-01
 Coeff:     -0.158D-01 0.428D+00 0.632D+00
 Gap=     0.182 Goal=   None    Shift=    0.000
 Gap=     0.075 Goal=   None    Shift=    0.000
 RMSDP=9.51D-09 MaxDP=3.80D-07 DE=-1.35D-11 OVMax= 3.36D-06

 SCF Done:  E(UB3LYP) =  -385.739393678     A.U. after   15 cycles
            NFock= 15  Conv=0.95D-08     -V/T= 2.0057
 <Sx>= 0.0000 <Sy>= 0.0000 <Sz>= 0.5000 <S**2>= 0.7616 S= 0.5058
 <L.S>=  0.00000000000    
 KE= 3.835685604561D+02 PE=-1.796925035176D+03 EE= 5.700606116452D+02
 Annihilation of the first spin contaminant:
 S**2 before annihilation     0.7616,   after     0.7501
 Leave Link  502 at Wed Apr  3 15:27:53 2024, MaxMem= 33554432000 cpu:            1249.1 elap:              39.3
 (Enter /apps/gaussian/g16-c01-avx2/g16/l601.exe)
 Copying SCF densities to generalized density rwf, IOpCl= 1 IROHF=0.

 **********************************************************************

            Population analysis using the SCF Density.

 **********************************************************************

 Orbital symmetries:
 Alpha Orbitals:
       Occupied  (A) (A) (A) (A) (A) (A) (A) (A) (A) (A) (A) (A)
                 (A) (A) (A) (A) (A) (A) (A) (A) (A) (A) (A) (A)
                 (A) (A) (A) (A) (A) (A) (A) (A) (A) (A)
       Virtual   (A) (A) (A) (A) (A) (A) (A) (A) (A) (A) (A) (A)
                 (A) (A) (A) (A) (A) (A) (A) (A) (A) (A) (A) (A)
                 (A) (A) (A) (A) (A) (A) (A) (A) (A) (A) (A) (A)
                 (A) (A) (A) (A) (A) (A) (A) (A) (A) (A) (A) (A)
                 (A) (A) (A) (A) (A) (A) (A) (A) (A) (A) (A) (A)
                 (A) (A) (A) (A) (A) (A) (A) (A) (A) (A) (A) (A)
                 (A) (A) (A) (A) (A) (A) (A) (A) (A) (A) (A) (A)
                 (A) (A) (A) (A) (A) (A) (A) (A) (A) (A) (A) (A)
                 (A) (A) (A) (A) (A) (A) (A) (A) (A) (A) (A) (A)
                 (A) (A) (A) (A) (A) (A) (A) (A) (A) (A) (A) (A)
                 (A) (A) (A) (A) (A) (A) (A) (A) (A) (A) (A) (A)
                 (A) (A) (A) (A) (A) (A) (A) (A) (A) (A) (A) (A)
                 (A) (A) (A) (A) (A) (A) (A) (A) (A) (A) (A) (A)
                 (A) (A) (A) (A) (A) (A) (A) (A) (A) (A) (A) (A)
                 (A) (A) (A) (A) (A) (A) (A) (A) (A) (A) (A) (A)
                 (A) (A) (A) (A) (A) (A) (A) (A) (A) (A) (A) (A)
                 (A) (A) (A) (A) (A) (A) (A) (A) (A) (A) (A) (A)
                 (A) (A) (A) (A) (A) (A) (A) (A) (A) (A) (A) (A)
                 (A) (A) (A) (A) (A) (A) (A) (A) (A) (A) (A) (A)
                 (A) (A) (A) (A) (A) (A) (A) (A) (A) (A) (A) (A)
                 (A) (A) (A) (A) (A) (A) (A) (A) (A) (A) (A) (A)
                 (A) (A) (A) (A) (A) (A) (A) (A) (A) (A) (A) (A)
                 (A) (A) (A) (A) (A) (A) (A) (A) (A) (A) (A) (A)
                 (A) (A) (A) (A) (A) (A) (A) (A) (A) (A) (A) (A)
                 (A) (A) (A) (A) (A) (A) (A) (A) (A) (A) (A) (A)
                 (A) (A) (A) (A) (A) (A) (A) (A) (A) (A) (A) (A)
                 (A) (A) (A) (A) (A) (A) (A) (A) (A) (A) (A) (A)
 Beta  Orbitals:
       Occupied  (A) (A) (A) (A) (A) (A) (A) (A) (A) (A) (A) (A)
                 (A) (A) (A) (A) (A) (A) (A) (A) (A) (A) (A) (A)
                 (A) (A) (A) (A) (A) (A) (A) (A) (A)
       Virtual   (A) (A) (A) (A) (A) (A) (A) (A) (A) (A) (A) (A)
                 (A) (A) (A) (A) (A) (A) (A) (A) (A) (A) (A) (A)
                 (A) (A) (A) (A) (A) (A) (A) (A) (A) (A) (A) (A)
                 (A) (A) (A) (A) (A) (A) (A) (A) (A) (A) (A) (A)
                 (A) (A) (A) (A) (A) (A) (A) (A) (A) (A) (A) (A)
                 (A) (A) (A) (A) (A) (A) (A) (A) (A) (A) (A) (A)
                 (A) (A) (A) (A) (A) (A) (A) (A) (A) (A) (A) (A)
                 (A) (A) (A) (A) (A) (A) (A) (A) (A) (A) (A) (A)
                 (A) (A) (A) (A) (A) (A) (A) (A) (A) (A) (A) (A)
                 (A) (A) (A) (A) (A) (A) (A) (A) (A) (A) (A) (A)
                 (A) (A) (A) (A) (A) (A) (A) (A) (A) (A) (A) (A)
                 (A) (A) (A) (A) (A) (A) (A) (A) (A) (A) (A) (A)
                 (A) (A) (A) (A) (A) (A) (A) (A) (A) (A) (A) (A)
                 (A) (A) (A) (A) (A) (A) (A) (A) (A) (A) (A) (A)
                 (A) (A) (A) (A) (A) (A) (A) (A) (A) (A) (A) (A)
                 (A) (A) (A) (A) (A) (A) (A) (A) (A) (A) (A) (A)
                 (A) (A) (A) (A) (A) (A) (A) (A) (A) (A) (A) (A)
                 (A) (A) (A) (A) (A) (A) (A) (A) (A) (A) (A) (A)
                 (A) (A) (A) (A) (A) (A) (A) (A) (A) (A) (A) (A)
                 (A) (A) (A) (A) (A) (A) (A) (A) (A) (A) (A) (A)
                 (A) (A) (A) (A) (A) (A) (A) (A) (A) (A) (A) (A)
                 (A) (A) (A) (A) (A) (A) (A) (A) (A) (A) (A) (A)
                 (A) (A) (A) (A) (A) (A) (A) (A) (A) (A) (A) (A)
                 (A) (A) (A) (A) (A) (A) (A) (A) (A) (A) (A) (A)
                 (A) (A) (A) (A) (A) (A) (A) (A) (A) (A) (A) (A)
                 (A) (A) (A) (A) (A) (A) (A) (A) (A) (A) (A) (A)
                 (A) (A) (A) (A) (A) (A) (A) (A) (A) (A) (A) (A)
                 (A)
 The electronic state is 2-A.
 Alpha  occ. eigenvalues --  -10.38528 -10.38525 -10.38520 -10.38517 -10.37392
 Alpha  occ. eigenvalues --  -10.37348 -10.37087 -10.37085 -10.37039 -10.37037
 Alpha  occ. eigenvalues --   -1.07254  -1.01952  -0.97217  -0.93120  -0.91952
 Alpha  occ. eigenvalues --   -0.81486  -0.80366  -0.78767  -0.70294  -0.69414
 Alpha  occ. eigenvalues --   -0.68454  -0.63481  -0.62968  -0.61168  -0.60801
 Alpha  occ. eigenvalues --   -0.59066  -0.58374  -0.55398  -0.52877  -0.52817
 Alpha  occ. eigenvalues --   -0.51970  -0.49057  -0.43634  -0.42615
 Alpha virt. eigenvalues --   -0.24368  -0.20428  -0.17839  -0.10208  -0.10182
 Alpha virt. eigenvalues --   -0.08648  -0.08519  -0.05137  -0.04675  -0.03832
 Alpha virt. eigenvalues --   -0.03696  -0.03139  -0.01652   0.00421   0.00659
 Alpha virt. eigenvalues --    0.02590   0.02903   0.02938   0.03254   0.06771
 Alpha virt. eigenvalues --    0.07327   0.07555   0.08076   0.08560   0.09586
 Alpha virt. eigenvalues --    0.09744   0.10225   0.11951   0.12057   0.12639
 Alpha virt. eigenvalues --    0.12838   0.14917   0.15517   0.17953   0.18752
 Alpha virt. eigenvalues --    0.18999   0.19019   0.19500   0.20583   0.23298
 Alpha virt. eigenvalues --    0.23935   0.25872   0.25879   0.26086   0.26092
 Alpha virt. eigenvalues --    0.27840   0.27928   0.28351   0.30428   0.30825
 Alpha virt. eigenvalues --    0.32238   0.33083   0.34238   0.34289   0.34590
 Alpha virt. eigenvalues --    0.35372   0.35506   0.37611   0.40050   0.40993
 Alpha virt. eigenvalues --    0.44584   0.46448   0.48260   0.50220   0.50451
 Alpha virt. eigenvalues --    0.51227   0.53329   0.54405   0.54525   0.54872
 Alpha virt. eigenvalues --    0.54956   0.55384   0.55419   0.58970   0.59333
 Alpha virt. eigenvalues --    0.62489   0.64822   0.66827   0.67093   0.69131
 Alpha virt. eigenvalues --    0.69294   0.69729   0.70357   0.71705   0.73732
 Alpha virt. eigenvalues --    0.75047   0.76990   0.80066   0.80388   0.80439
 Alpha virt. eigenvalues --    0.82724   0.88297   0.89851   0.91605   0.94190
 Alpha virt. eigenvalues --    0.94701   0.95267   0.98403   1.01737   1.02016
 Alpha virt. eigenvalues --    1.04384   1.05021   1.05043   1.05389   1.06131
 Alpha virt. eigenvalues --    1.06474   1.06557   1.08193   1.09715   1.14666
 Alpha virt. eigenvalues --    1.17222   1.19723   1.20401   1.22464   1.22567
 Alpha virt. eigenvalues --    1.23197   1.26365   1.28891   1.29627   1.32171
 Alpha virt. eigenvalues --    1.32656   1.33052   1.33926   1.34291   1.36882
 Alpha virt. eigenvalues --    1.39341   1.40102   1.40429   1.46307   1.47250
 Alpha virt. eigenvalues --    1.47329   1.47978   1.48048   1.49409   1.50706
 Alpha virt. eigenvalues --    1.51450   1.52027   1.53330   1.56616   1.57608
 Alpha virt. eigenvalues --    1.63736   1.65682   1.65954   1.67698   1.72872
 Alpha virt. eigenvalues --    1.76477   1.78054   1.78908   1.81218   1.81317
 Alpha virt. eigenvalues --    1.83638   1.85306   1.89865   1.92249   1.93207
 Alpha virt. eigenvalues --    1.95076   1.96869   1.97581   2.00672   2.01432
 Alpha virt. eigenvalues --    2.05471   2.06170   2.06548   2.08786   2.11092
 Alpha virt. eigenvalues --    2.12322   2.20216   2.22642   2.24554   2.25907
 Alpha virt. eigenvalues --    2.26278   2.26964   2.35728   2.36694   2.37784
 Alpha virt. eigenvalues --    2.37806   2.38260   2.40823   2.41610   2.43866
 Alpha virt. eigenvalues --    2.44686   2.45767   2.46161   2.46529   2.50906
 Alpha virt. eigenvalues --    2.51597   2.53310   2.55072   2.55534   2.56472
 Alpha virt. eigenvalues --    2.57880   2.58583   2.59298   2.61290   2.61390
 Alpha virt. eigenvalues --    2.61400   2.63041   2.64520   2.68835   2.68869
 Alpha virt. eigenvalues --    2.68998   2.69967   2.70176   2.70493   2.74257
 Alpha virt. eigenvalues --    2.75900   2.77746   2.78812   2.81109   2.81220
 Alpha virt. eigenvalues --    2.81511   2.82429   2.84127   2.89073   2.90305
 Alpha virt. eigenvalues --    2.92489   2.94569   2.95175   2.96079   2.96644
 Alpha virt. eigenvalues --    2.99636   2.99883   3.01007   3.01530   3.01965
 Alpha virt. eigenvalues --    3.05339   3.05524   3.06037   3.06905   3.07796
 Alpha virt. eigenvalues --    3.10037   3.12053   3.13221   3.14493   3.15681
 Alpha virt. eigenvalues --    3.17254   3.17575   3.17853   3.19007   3.23612
 Alpha virt. eigenvalues --    3.25207   3.25560   3.26504   3.28027   3.28941
 Alpha virt. eigenvalues --    3.30253   3.31152   3.33448   3.35617   3.38146
 Alpha virt. eigenvalues --    3.40090   3.41402   3.43520   3.45377   3.47433
 Alpha virt. eigenvalues --    3.48758   3.51731   3.54609   3.61622   3.62749
 Alpha virt. eigenvalues --    3.64874   3.65197   3.65924   3.71623   3.72299
 Alpha virt. eigenvalues --    3.74179   3.76072   3.76894   3.82554   3.85150
 Alpha virt. eigenvalues --    3.85326   3.92824   3.93159   3.93727   3.97008
 Alpha virt. eigenvalues --    3.97333   3.97490   4.01967   4.02889   4.04948
 Alpha virt. eigenvalues --    4.05268   4.07286   4.07888   4.13036   4.13767
 Alpha virt. eigenvalues --    4.16014   4.22884   4.26296   4.26303   4.32602
 Alpha virt. eigenvalues --    4.34509   4.42752   4.50220   4.50759   4.51613
 Alpha virt. eigenvalues --    4.56350   4.58406   4.58440   4.59108   4.68800
 Alpha virt. eigenvalues --    4.74803   4.83498   4.85838   4.88687   4.90336
 Alpha virt. eigenvalues --    5.00796   5.01126   5.12769   5.14504   5.17712
 Alpha virt. eigenvalues --    5.40353   5.40854   5.47639   5.72103  21.60152
 Alpha virt. eigenvalues --   22.30368  22.37122  22.38256  22.43785  22.47762
 Alpha virt. eigenvalues --   22.59364  22.66643  22.78594  23.34964
  Beta  occ. eigenvalues --  -10.38176 -10.38174 -10.38169 -10.38166 -10.37479
  Beta  occ. eigenvalues --  -10.37436 -10.37014 -10.37012 -10.36966 -10.36964
  Beta  occ. eigenvalues --   -1.06805  -1.01280  -0.96387  -0.93010  -0.90797
  Beta  occ. eigenvalues --   -0.81072  -0.80020  -0.78370  -0.70036  -0.69022
  Beta  occ. eigenvalues --   -0.68247  -0.63258  -0.62901  -0.60918  -0.60528
  Beta  occ. eigenvalues --   -0.58142  -0.57799  -0.55314  -0.52652  -0.51897
  Beta  occ. eigenvalues --   -0.50827  -0.46317  -0.43454
  Beta virt. eigenvalues --   -0.35908  -0.22070  -0.19592  -0.16225  -0.10099
  Beta virt. eigenvalues --   -0.08645  -0.08537  -0.08426  -0.05015  -0.04603
  Beta virt. eigenvalues --   -0.03685  -0.03621  -0.02940  -0.01212   0.00682
  Beta virt. eigenvalues --    0.00787   0.02702   0.02979   0.03484   0.03505
  Beta virt. eigenvalues --    0.07067   0.07608   0.08239   0.08548   0.08723
  Beta virt. eigenvalues --    0.09613   0.09857   0.10772   0.12187   0.12673
  Beta virt. eigenvalues --    0.12740   0.13044   0.15118   0.15774   0.18139
  Beta virt. eigenvalues --    0.19001   0.19440   0.19679   0.19794   0.21059
  Beta virt. eigenvalues --    0.23677   0.24026   0.26222   0.26251   0.26273
  Beta virt. eigenvalues --    0.26373   0.27902   0.28400   0.28500   0.30351
  Beta virt. eigenvalues --    0.30915   0.32382   0.33287   0.34395   0.34448
  Beta virt. eigenvalues --    0.34787   0.35461   0.35854   0.37932   0.40133
  Beta virt. eigenvalues --    0.41057   0.44720   0.46732   0.48705   0.50229
  Beta virt. eigenvalues --    0.50496   0.51642   0.53596   0.54860   0.54955
  Beta virt. eigenvalues --    0.55133   0.55183   0.56161   0.56309   0.59123
  Beta virt. eigenvalues --    0.59499   0.62678   0.65078   0.66893   0.67334
  Beta virt. eigenvalues --    0.69264   0.70030   0.70214   0.70536   0.71831
  Beta virt. eigenvalues --    0.73784   0.75573   0.77230   0.80675   0.80782
  Beta virt. eigenvalues --    0.81149   0.82882   0.88643   0.90057   0.92176
  Beta virt. eigenvalues --    0.94622   0.94843   0.95956   0.98932   1.02308
  Beta virt. eigenvalues --    1.02362   1.04694   1.05293   1.05346   1.05644
  Beta virt. eigenvalues --    1.06460   1.06547   1.06729   1.08470   1.09809
  Beta virt. eigenvalues --    1.15630   1.17396   1.20472   1.20753   1.22670
  Beta virt. eigenvalues --    1.22785   1.23864   1.27029   1.29835   1.30124
  Beta virt. eigenvalues --    1.32360   1.33179   1.33351   1.34192   1.34479
  Beta virt. eigenvalues --    1.37249   1.39400   1.40258   1.41096   1.47316
  Beta virt. eigenvalues --    1.47578   1.47676   1.48359   1.48640   1.49605
  Beta virt. eigenvalues --    1.50994   1.51695   1.52184   1.53439   1.56900
  Beta virt. eigenvalues --    1.57990   1.64735   1.66014   1.66035   1.68242
  Beta virt. eigenvalues --    1.73180   1.76918   1.78236   1.79165   1.81431
  Beta virt. eigenvalues --    1.81713   1.83889   1.85627   1.89982   1.92529
  Beta virt. eigenvalues --    1.93556   1.95529   1.97310   1.98138   2.00845
  Beta virt. eigenvalues --    2.01700   2.06059   2.06296   2.06829   2.09022
  Beta virt. eigenvalues --    2.11387   2.13077   2.20623   2.23283   2.25149
  Beta virt. eigenvalues --    2.26374   2.26403   2.27248   2.35930   2.36913
  Beta virt. eigenvalues --    2.37888   2.38557   2.38729   2.41095   2.42123
  Beta virt. eigenvalues --    2.44422   2.44790   2.46000   2.46491   2.47410
  Beta virt. eigenvalues --    2.51937   2.51951   2.53440   2.55573   2.55806
  Beta virt. eigenvalues --    2.56664   2.58327   2.59487   2.59591   2.61461
  Beta virt. eigenvalues --    2.61727   2.61934   2.63414   2.65027   2.68984
  Beta virt. eigenvalues --    2.69327   2.69456   2.70459   2.71110   2.71509
  Beta virt. eigenvalues --    2.74686   2.76223   2.78212   2.78879   2.81871
  Beta virt. eigenvalues --    2.81957   2.82035   2.82553   2.84589   2.89746
  Beta virt. eigenvalues --    2.90792   2.92775   2.95198   2.95541   2.96714
  Beta virt. eigenvalues --    2.97599   3.00274   3.00795   3.01281   3.02173
  Beta virt. eigenvalues --    3.02552   3.05591   3.06229   3.06512   3.07020
  Beta virt. eigenvalues --    3.08059   3.10918   3.13097   3.13405   3.14803
  Beta virt. eigenvalues --    3.15900   3.17859   3.17930   3.18179   3.19165
  Beta virt. eigenvalues --    3.24111   3.25341   3.26280   3.26863   3.28947
  Beta virt. eigenvalues --    3.29075   3.30544   3.31599   3.34174   3.36268
  Beta virt. eigenvalues --    3.38743   3.40203   3.41644   3.43756   3.45632
  Beta virt. eigenvalues --    3.47556   3.49363   3.52020   3.54697   3.62173
  Beta virt. eigenvalues --    3.63136   3.65513   3.65855   3.66141   3.72204
  Beta virt. eigenvalues --    3.72544   3.74376   3.76452   3.77344   3.83109
  Beta virt. eigenvalues --    3.85326   3.85844   3.93486   3.93537   3.93931
  Beta virt. eigenvalues --    3.97460   3.97746   3.98051   4.02443   4.03057
  Beta virt. eigenvalues --    4.05169   4.05575   4.07923   4.08397   4.13274
  Beta virt. eigenvalues --    4.14689   4.16260   4.23050   4.26459   4.27245
  Beta virt. eigenvalues --    4.33048   4.35092   4.43024   4.50417   4.51044
  Beta virt. eigenvalues --    4.52001   4.56810   4.58718   4.59005   4.59281
  Beta virt. eigenvalues --    4.69002   4.75183   4.83694   4.86069   4.88902
  Beta virt. eigenvalues --    4.90622   5.00967   5.01481   5.12938   5.14570
  Beta virt. eigenvalues --    5.17814   5.40694   5.40975   5.47857   5.72202
  Beta virt. eigenvalues --   21.60341  22.30572  22.37359  22.38561  22.43907
  Beta virt. eigenvalues --   22.47878  22.59469  22.66916  22.78928  23.34931
          Condensed to atoms (all electrons):
               1          2          3          4          5          6
     1  C    4.841758   0.475453  -0.029620  -0.039296  -0.012063   0.471497
     2  C    0.475453   4.941265   0.445034  -0.041595  -0.046427  -0.012341
     3  C   -0.029620   0.445034   4.875027   0.418088  -0.041581  -0.039108
     4  C   -0.039296  -0.041595   0.418088   4.874888   0.445319  -0.029890
     5  C   -0.012063  -0.046427  -0.041581   0.445319   4.941731   0.475169
     6  C    0.471497  -0.012341  -0.039108  -0.029890   0.475169   4.841633
     7  H    0.000685  -0.000520  -0.045974   0.008717  -0.000195   0.000007
     8  H    0.413166  -0.035001   0.006711  -0.000419   0.006063  -0.033041
     9  H   -0.029156   0.410788  -0.046113   0.008748  -0.001164   0.005896
    10  C    0.008874  -0.078518   0.445055  -0.041592   0.012351  -0.002179
    11  C   -0.002185   0.012315  -0.041702   0.445000  -0.078529   0.008833
    12  H    0.005879  -0.001159   0.008734  -0.045972   0.410745  -0.029137
    13  H   -0.033014   0.006064  -0.000419   0.006717  -0.035069   0.413201
    14  C    0.000454  -0.002184  -0.039335  -0.029530   0.008871  -0.001021
    15  C   -0.001021   0.008828  -0.029875  -0.039002  -0.002175   0.000449
    16  H    0.000006  -0.000198   0.008770  -0.046129  -0.000523   0.000684
    17  H   -0.000003   0.000045  -0.000421   0.006709  -0.000370   0.000010
    18  H    0.000010  -0.000369   0.006711  -0.000422   0.000045  -0.000003
               7          8          9         10         11         12
     1  C    0.000685   0.413166  -0.029156   0.008874  -0.002185   0.005879
     2  C   -0.000520  -0.035001   0.410788  -0.078518   0.012315  -0.001159
     3  C   -0.045974   0.006711  -0.046113   0.445055  -0.041702   0.008734
     4  C    0.008717  -0.000419   0.008748  -0.041592   0.445000  -0.045972
     5  C   -0.000195   0.006063  -0.001164   0.012351  -0.078529   0.410745
     6  C    0.000007  -0.033041   0.005896  -0.002179   0.008833  -0.029137
     7  H    0.478269  -0.000017   0.003899   0.410722  -0.001157   0.000009
     8  H   -0.000017   0.471689  -0.004460  -0.000371   0.000046  -0.000131
     9  H    0.003899  -0.004460   0.478392  -0.000524  -0.000197   0.000038
    10  C    0.410722  -0.000371  -0.000524   4.941945  -0.046516  -0.000195
    11  C   -0.001157   0.000046  -0.000197  -0.046516   4.941437  -0.000525
    12  H    0.000009  -0.000131   0.000038  -0.000195  -0.000525   0.478158
    13  H   -0.000002  -0.003828  -0.000131   0.000045  -0.000370  -0.004435
    14  C    0.005892  -0.000003   0.000006  -0.012098   0.475524   0.000683
    15  C   -0.029156   0.000010   0.000687   0.475381  -0.012311   0.000007
    16  H    0.000038  -0.000002   0.000009  -0.001164   0.410762   0.003900
    17  H   -0.000132   0.000000  -0.000002   0.006067  -0.034987  -0.000017
    18  H   -0.004446  -0.000000  -0.000017  -0.035005   0.006061  -0.000002
              13         14         15         16         17         18
     1  C   -0.033014   0.000454  -0.001021   0.000006  -0.000003   0.000010
     2  C    0.006064  -0.002184   0.008828  -0.000198   0.000045  -0.000369
     3  C   -0.000419  -0.039335  -0.029875   0.008770  -0.000421   0.006711
     4  C    0.006717  -0.029530  -0.039002  -0.046129   0.006709  -0.000422
     5  C   -0.035069   0.008871  -0.002175  -0.000523  -0.000370   0.000045
     6  C    0.413201  -0.001021   0.000449   0.000684   0.000010  -0.000003
     7  H   -0.000002   0.005892  -0.029156   0.000038  -0.000132  -0.004446
     8  H   -0.003828  -0.000003   0.000010  -0.000002   0.000000  -0.000000
     9  H   -0.000131   0.000006   0.000687   0.000009  -0.000002  -0.000017
    10  C    0.000045  -0.012098   0.475381  -0.001164   0.006067  -0.035005
    11  C   -0.000370   0.475524  -0.012311   0.410762  -0.034987   0.006061
    12  H   -0.004435   0.000683   0.000007   0.003900  -0.000017  -0.000002
    13  H    0.471600   0.000010  -0.000003  -0.000016  -0.000000   0.000000
    14  C    0.000010   4.841853   0.471253  -0.029181   0.413173  -0.033028
    15  C   -0.000003   0.471253   4.841578   0.005900  -0.033055   0.413184
    16  H   -0.000016  -0.029181   0.005900   0.478483  -0.004465  -0.000131
    17  H   -0.000000   0.413173  -0.033055  -0.004465   0.471647  -0.003818
    18  H    0.000000  -0.033028   0.413184  -0.000131  -0.003818   0.471549
          Atomic-Atomic Spin Densities.
               1          2          3          4          5          6
     1  C    0.039986   0.040179  -0.001178  -0.000983  -0.007296  -0.023858
     2  C    0.040179   0.243741  -0.007876  -0.000052  -0.007477  -0.007292
     3  C   -0.001178  -0.007876  -0.047342  -0.004880  -0.000061  -0.000990
     4  C   -0.000983  -0.000052  -0.004880  -0.047351  -0.007931  -0.001190
     5  C   -0.007296  -0.007477  -0.000061  -0.007931   0.244125   0.040212
     6  C   -0.023858  -0.007292  -0.000990  -0.001190   0.040212   0.040155
     7  H   -0.000017  -0.000547  -0.001464  -0.000149   0.000046  -0.000007
     8  H   -0.000371   0.000304  -0.000122  -0.000015   0.000007   0.000059
     9  H   -0.000116   0.002962  -0.001460  -0.000148  -0.000172   0.000151
    10  C   -0.000716  -0.013107  -0.007948  -0.000047   0.002285   0.000197
    11  C    0.000197   0.002292  -0.000047  -0.007905  -0.013110  -0.000720
    12  H    0.000151  -0.000172  -0.000150  -0.001469   0.002972  -0.000115
    13  H    0.000059   0.000005  -0.000015  -0.000122   0.000305  -0.000370
    14  C    0.000051   0.000197  -0.000978  -0.001191  -0.000718   0.000001
    15  C    0.000001  -0.000718  -0.001188  -0.000987   0.000197   0.000051
    16  H   -0.000007   0.000046  -0.000149  -0.001460  -0.000548  -0.000018
    17  H    0.000001  -0.000003  -0.000015  -0.000123   0.000010  -0.000001
    18  H   -0.000001   0.000010  -0.000122  -0.000015  -0.000003   0.000001
               7          8          9         10         11         12
     1  C   -0.000017  -0.000371  -0.000116  -0.000716   0.000197   0.000151
     2  C   -0.000547   0.000304   0.002962  -0.013107   0.002292  -0.000172
     3  C   -0.001464  -0.000122  -0.001460  -0.007948  -0.000047  -0.000150
     4  C   -0.000149  -0.000015  -0.000148  -0.000047  -0.007905  -0.001469
     5  C    0.000046   0.000007  -0.000172   0.002285  -0.013110   0.002972
     6  C   -0.000007   0.000059   0.000151   0.000197  -0.000720  -0.000115
     7  H   -0.008539   0.000000  -0.000197   0.002966  -0.000172   0.000000
     8  H    0.000000  -0.002946   0.000058   0.000010  -0.000003   0.000005
     9  H   -0.000197   0.000058  -0.008533  -0.000548   0.000046  -0.000001
    10  C    0.002966   0.000010  -0.000548   0.244022  -0.007498   0.000046
    11  C   -0.000172  -0.000003   0.000046  -0.007498   0.244045  -0.000548
    12  H    0.000000   0.000005  -0.000001   0.000046  -0.000548  -0.008537
    13  H   -0.000000   0.000063   0.000005  -0.000003   0.000010   0.000058
    14  C    0.000151   0.000001  -0.000007  -0.007299   0.040234  -0.000017
    15  C   -0.000115  -0.000001  -0.000017   0.040226  -0.007296  -0.000008
    16  H   -0.000001  -0.000000   0.000000  -0.000172   0.002964  -0.000197
    17  H    0.000005  -0.000000  -0.000000   0.000006   0.000303   0.000000
    18  H    0.000058  -0.000000   0.000000   0.000303   0.000006  -0.000000
              13         14         15         16         17         18
     1  C    0.000059   0.000051   0.000001  -0.000007   0.000001  -0.000001
     2  C    0.000005   0.000197  -0.000718   0.000046  -0.000003   0.000010
     3  C   -0.000015  -0.000978  -0.001188  -0.000149  -0.000015  -0.000122
     4  C   -0.000122  -0.001191  -0.000987  -0.001460  -0.000123  -0.000015
     5  C    0.000305  -0.000718   0.000197  -0.000548   0.000010  -0.000003
     6  C   -0.000370   0.000001   0.000051  -0.000018  -0.000001   0.000001
     7  H   -0.000000   0.000151  -0.000115  -0.000001   0.000005   0.000058
     8  H    0.000063   0.000001  -0.000001  -0.000000  -0.000000  -0.000000
     9  H    0.000005  -0.000007  -0.000017   0.000000  -0.000000   0.000000
    10  C   -0.000003  -0.007299   0.040226  -0.000172   0.000006   0.000303
    11  C    0.000010   0.040234  -0.007296   0.002964   0.000303   0.000006
    12  H    0.000058  -0.000017  -0.000008  -0.000197   0.000000  -0.000000
    13  H   -0.002953  -0.000001   0.000001   0.000000  -0.000000  -0.000000
    14  C   -0.000001   0.040120  -0.023895  -0.000113  -0.000370   0.000057
    15  C    0.000001  -0.023895   0.040237   0.000151   0.000058  -0.000368
    16  H    0.000000  -0.000113   0.000151  -0.008548   0.000058   0.000005
    17  H   -0.000000  -0.000370   0.000058   0.000058  -0.002952   0.000063
    18  H   -0.000000   0.000057  -0.000368   0.000005   0.000063  -0.002953
 Mulliken charges and spin densities:
               1          2
     1  C   -0.071423   0.046082
     2  C   -0.081479   0.252494
     3  C    0.100017  -0.075986
     4  C    0.099659  -0.076020
     5  C   -0.082198   0.252843
     6  C   -0.070658   0.046265
     7  H    0.173362  -0.007982
     8  H    0.179588  -0.002950
     9  H    0.173299  -0.007977
    10  C   -0.082279   0.252725
    11  C   -0.081498   0.252799
    12  H    0.173422  -0.007981
    13  H    0.179649  -0.002956
    14  C   -0.071339   0.046220
    15  C   -0.070679   0.046328
    16  H    0.173258  -0.007988
    17  H    0.179617  -0.002958
    18  H    0.179680  -0.002958
 Sum of Mulliken charges =   1.00000   1.00000
 Mulliken charges and spin densities with hydrogens summed into heavy atoms:
               1          2
     1  C    0.108165   0.043132
     2  C    0.091820   0.244517
     3  C    0.100017  -0.075986
     4  C    0.099659  -0.076020
     5  C    0.091224   0.244862
     6  C    0.108991   0.043309
    10  C    0.091083   0.244743
    11  C    0.091760   0.244811
    14  C    0.108279   0.043262
    15  C    0.109001   0.043370
 Electronic spatial extent (au):  <R**2>=           1258.1474
 Charge=              1.0000 electrons
 Dipole moment (field-independent basis, Debye):
    X=             -0.0016    Y=              0.0005    Z=              0.0001  Tot=              0.0016
 Quadrupole moment (field-independent basis, Debye-Ang):
   XX=            -26.2151   YY=            -37.0781   ZZ=            -59.2279
   XY=              0.0099   XZ=             -0.0003   YZ=              0.0010
 Traceless Quadrupole moment (field-independent basis, Debye-Ang):
   XX=             14.6252   YY=              3.7623   ZZ=            -18.3875
   XY=              0.0099   XZ=             -0.0003   YZ=              0.0010
 Octapole moment (field-independent basis, Debye-Ang**2):
  XXX=             -0.0299  YYY=              0.0023  ZZZ=              0.0000  XYY=              0.0028
  XXY=             -0.0023  XXZ=              0.0054  XZZ=             -0.0012  YZZ=              0.0002
  YYZ=             -0.0011  XYZ=              0.0002
 Hexadecapole moment (field-independent basis, Debye-Ang**3):
 XXXX=           -836.2809 YYYY=           -397.8561 ZZZZ=            -65.4113 XXXY=              0.0633
 XXXZ=             -0.0077 YYYX=              0.0508 YYYZ=              0.0081 ZZZX=             -0.0003
 ZZZY=              0.0010 XXYY=           -210.8330 XXZZ=           -218.9408 YYZZ=           -101.3936
 XXYZ=              0.0049 YYXZ=              0.0012 ZZXY=              0.0040
 N-N= 4.575564693960D+02 E-N=-1.796925020850D+03  KE= 3.835685604561D+02
                          Isotropic Fermi Contact Couplings
        Atom                 a.u.       MegaHertz       Gauss      10(-4) cm-1
     1  C(13)             -0.00389      -4.37468      -1.56100      -1.45924
     2  C(13)              0.01238      13.91802       4.96630       4.64255
     3  C(13)             -0.01238     -13.92021      -4.96708      -4.64328
     4  C(13)             -0.01239     -13.93347      -4.97181      -4.64771
     5  C(13)              0.01240      13.94177       4.97477       4.65048
     6  C(13)             -0.00388      -4.35733      -1.55480      -1.45345
     7  H(1)              -0.00335     -14.95543      -5.33647      -4.98860
     8  H(1)              -0.00094      -4.19485      -1.49683      -1.39925
     9  H(1)              -0.00334     -14.94327      -5.33213      -4.98454
    10  C(13)              0.01239      13.93044       4.97073       4.64669
    11  C(13)              0.01239      13.93258       4.97149       4.64741
    12  H(1)              -0.00335     -14.96315      -5.33922      -4.99117
    13  H(1)              -0.00094      -4.20669      -1.50105      -1.40320
    14  C(13)             -0.00389      -4.37198      -1.56003      -1.45833
    15  C(13)             -0.00388      -4.35691      -1.55465      -1.45331
    16  H(1)              -0.00335     -14.95875      -5.33766      -4.98970
    17  H(1)              -0.00094      -4.20535      -1.50057      -1.40275
    18  H(1)              -0.00094      -4.21206      -1.50297      -1.40499
 --------------------------------------------------------
       Center         ----  Spin Dipole Couplings  ----
                      3XX-RR        3YY-RR        3ZZ-RR
 --------------------------------------------------------
     1   Atom       -0.034702     -0.037576      0.072278
     2   Atom       -0.145093     -0.145931      0.291024
     3   Atom        0.037989      0.022090     -0.060078
     4   Atom        0.038015      0.022075     -0.060090
     5   Atom       -0.145259     -0.146097      0.291357
     6   Atom       -0.034804     -0.037670      0.072474
     7   Atom       -0.015316      0.019234     -0.003918
     8   Atom        0.009843     -0.006095     -0.003748
     9   Atom       -0.015292      0.019211     -0.003919
    10   Atom       -0.145212     -0.146047      0.291259
    11   Atom       -0.145262     -0.146101      0.291363
    12   Atom       -0.015322      0.019237     -0.003916
    13   Atom        0.009861     -0.006115     -0.003746
    14   Atom       -0.034802     -0.037679      0.072480
    15   Atom       -0.034843     -0.037728      0.072571
    16   Atom       -0.015314      0.019235     -0.003921
    17   Atom        0.009858     -0.006107     -0.003751
    18   Atom        0.009864     -0.006115     -0.003749
 --------------------------------------------------------
                        XY            XZ            YZ
 --------------------------------------------------------
     1   Atom        0.003692     -0.000018     -0.000008
     2   Atom        0.002160     -0.000028     -0.000039
     3   Atom        0.000003     -0.000007     -0.000003
     4   Atom        0.000021      0.000002     -0.000004
     5   Atom       -0.002165     -0.000043     -0.000014
     6   Atom       -0.003688     -0.000018      0.000005
     7   Atom       -0.002196      0.000001      0.000007
     8   Atom       -0.003482      0.000001     -0.000001
     9   Atom        0.002220     -0.000001      0.000001
    10   Atom       -0.002169      0.000040     -0.000080
    11   Atom        0.002164     -0.000007      0.000007
    12   Atom       -0.002191     -0.000001      0.000002
    13   Atom        0.003469      0.000001      0.000000
    14   Atom        0.003697      0.000020      0.000018
    15   Atom       -0.003689      0.000003      0.000023
    16   Atom        0.002216     -0.000000     -0.000001
    17   Atom       -0.003490     -0.000001      0.000001
    18   Atom        0.003479     -0.000003     -0.000001
 --------------------------------------------------------


 ---------------------------------------------------------------------------------
              Anisotropic Spin Dipole Couplings in Principal Axis System
 ---------------------------------------------------------------------------------

       Atom             a.u.   MegaHertz   Gauss  10(-4) cm-1        Axes

              Baa    -0.0401    -5.381    -1.920    -1.795 -0.5645  0.8255 -0.0000
     1 C(13)  Bbb    -0.0322    -4.318    -1.541    -1.440  0.8255  0.5645  0.0002
              Bcc     0.0723     9.699     3.461     3.235 -0.0002 -0.0001  1.0000
 
              Baa    -0.1477   -19.822    -7.073    -6.612 -0.6362  0.7715  0.0000
     2 C(13)  Bbb    -0.1433   -19.231    -6.862    -6.415  0.7715  0.6362  0.0001
              Bcc     0.2910    39.053    13.935    13.027 -0.0001 -0.0001  1.0000
 
              Baa    -0.0601    -8.062    -2.877    -2.689  0.0001  0.0000  1.0000
     3 C(13)  Bbb     0.0221     2.964     1.058     0.989 -0.0002  1.0000 -0.0000
              Bcc     0.0380     5.098     1.819     1.700  1.0000  0.0002 -0.0001
 
              Baa    -0.0601    -8.064    -2.877    -2.690 -0.0000  0.0001  1.0000
     4 C(13)  Bbb     0.0221     2.962     1.057     0.988 -0.0013  1.0000 -0.0001
              Bcc     0.0380     5.101     1.820     1.702  1.0000  0.0013  0.0000
 
              Baa    -0.1479   -19.845    -7.081    -6.619  0.6364  0.7713  0.0001
     5 C(13)  Bbb    -0.1435   -19.253    -6.870    -6.422  0.7713 -0.6364  0.0001
              Bcc     0.2914    39.097    13.951    13.041 -0.0001 -0.0000  1.0000
 
              Baa    -0.0402    -5.394    -1.925    -1.799  0.5647  0.8253  0.0000
     6 C(13)  Bbb    -0.0323    -4.332    -1.546    -1.445  0.8253 -0.5647  0.0002
              Bcc     0.0725     9.725     3.470     3.244 -0.0002  0.0001  1.0000
 
              Baa    -0.0155    -8.246    -2.942    -2.751  0.9980  0.0632 -0.0001
     7 H(1)   Bbb    -0.0039    -2.090    -0.746    -0.697  0.0002 -0.0003  1.0000
              Bcc     0.0194    10.336     3.688     3.448 -0.0632  0.9980  0.0003
 
              Baa    -0.0068    -3.640    -1.299    -1.214  0.2045  0.9789  0.0001
     8 H(1)   Bbb    -0.0037    -2.000    -0.714    -0.667 -0.0001 -0.0001  1.0000
              Bcc     0.0106     5.640     2.012     1.881  0.9789 -0.2045  0.0001
 
              Baa    -0.0154    -8.235    -2.938    -2.747  0.9980 -0.0639  0.0001
     9 H(1)   Bbb    -0.0039    -2.091    -0.746    -0.697 -0.0001 -0.0001  1.0000
              Bcc     0.0194    10.326     3.685     3.444  0.0639  0.9980  0.0001
 
              Baa    -0.1478   -19.838    -7.079    -6.617  0.6368  0.7710  0.0001
    10 C(13)  Bbb    -0.1434   -19.246    -6.867    -6.420  0.7710 -0.6368 -0.0002
              Bcc     0.2913    39.084    13.946    13.037  0.0001 -0.0002  1.0000
 
              Baa    -0.1479   -19.845    -7.081    -6.620 -0.6362  0.7715 -0.0000
    11 C(13)  Bbb    -0.1435   -19.253    -6.870    -6.422  0.7715  0.6362  0.0000
              Bcc     0.2914    39.098    13.951    13.042 -0.0000  0.0000  1.0000
 
              Baa    -0.0155    -8.249    -2.943    -2.751  0.9980  0.0630  0.0001
    12 H(1)   Bbb    -0.0039    -2.089    -0.746    -0.697 -0.0001 -0.0001  1.0000
              Bcc     0.0194    10.338     3.689     3.448 -0.0630  0.9980  0.0001
 
              Baa    -0.0068    -3.647    -1.301    -1.217 -0.2034  0.9791  0.0000
    13 H(1)   Bbb    -0.0037    -1.999    -0.713    -0.667 -0.0001 -0.0000  1.0000
              Bcc     0.0106     5.646     2.015     1.883  0.9791  0.2034  0.0001
 
              Baa    -0.0402    -5.395    -1.925    -1.800 -0.5645  0.8254 -0.0000
    14 C(13)  Bbb    -0.0323    -4.331    -1.545    -1.445  0.8254  0.5645 -0.0003
              Bcc     0.0725     9.726     3.471     3.244  0.0002  0.0002  1.0000
 
              Baa    -0.0402    -5.401    -1.927    -1.801  0.5638  0.8259 -0.0002
    15 C(13)  Bbb    -0.0323    -4.338    -1.548    -1.447  0.8259 -0.5638  0.0001
              Bcc     0.0726     9.738     3.475     3.248  0.0000  0.0002  1.0000
 
              Baa    -0.0155    -8.246    -2.942    -2.751  0.9980 -0.0637  0.0000
    16 H(1)   Bbb    -0.0039    -2.092    -0.747    -0.698 -0.0000  0.0000  1.0000
              Bcc     0.0194    10.338     3.689     3.448  0.0637  0.9980 -0.0000
 
              Baa    -0.0068    -3.648    -1.302    -1.217  0.2046  0.9788 -0.0004
    17 H(1)   Bbb    -0.0038    -2.001    -0.714    -0.668  0.0002  0.0003  1.0000
              Bcc     0.0106     5.649     2.016     1.884  0.9788 -0.2046 -0.0001
 
              Baa    -0.0068    -3.649    -1.302    -1.217 -0.2039  0.9790  0.0001
    18 H(1)   Bbb    -0.0037    -2.000    -0.714    -0.667  0.0002 -0.0000  1.0000
              Bcc     0.0106     5.649     2.016     1.884  0.9790  0.2039 -0.0002
 

 ---------------------------------------------------------------------------------

 No NMR shielding tensors so no spin-rotation constants.
 Leave Link  601 at Wed Apr  3 15:27:54 2024, MaxMem= 33554432000 cpu:              10.4 elap:               0.5
 (Enter /apps/gaussian/g16-c01-avx2/g16/l701.exe)
 ... and contract with generalized density number  0.
 Compute integral first derivatives.
   1 Symmetry operations used in ECPInt.
 ECPInt:  NShTT=   10153 NPrTT=   31120 LenC2=    9872 LenP2D=   23930.
 LDataN:  DoStor=T MaxTD1= 7 Len=  274
 Leave Link  701 at Wed Apr  3 15:27:55 2024, MaxMem= 33554432000 cpu:               7.7 elap:               0.3
 (Enter /apps/gaussian/g16-c01-avx2/g16/l702.exe)
 L702 exits ... SP integral derivatives will be done elsewhere.
 Leave Link  702 at Wed Apr  3 15:27:55 2024, MaxMem= 33554432000 cpu:               0.4 elap:               0.0
 (Enter /apps/gaussian/g16-c01-avx2/g16/l703.exe)
 Integral derivatives from FoFJK, PRISM(SPDF).
 Compute integral first derivatives, UseDBF=F ICtDFT=           0.
 Calling FoFJK, ICntrl=      2127 FMM=F ISym2X=0 I1Cent= 0 IOpClX= 1 NMat=1 NMatS=1 NMatT=0.
 FoFJK:  IHMeth= 1 ICntrl=    2127 DoSepK=F KAlg= 0 I1Cent=           0 FoldK=F
 IRaf=         0 NMat=       1 IRICut=       1 DoRegI=T DoRafI=F ISym2E= 0 IDoP0=0 IntGTp=1.
 FoFCou: FMM=F IPFlag=           0 FMFlag=      100000 FMFlg1=         800
         NFxFlg=           0 DoJE=F BraDBF=F KetDBF=F FulRan=T
         wScrn=  0.000000 ICntrl=      2127 IOpCl=  1 I1Cent=           0 NGrid=           0
         NMat0=    1 NMatS0=      1 NMatT0=    0 NMatD0=    1 NMtDS0=    0 NMtDT0=    0
 Symmetry not used in FoFCou.
 Leave Link  703 at Wed Apr  3 15:28:07 2024, MaxMem= 33554432000 cpu:             345.0 elap:              10.9
 (Enter /apps/gaussian/g16-c01-avx2/g16/l716.exe)
 Dipole        =-6.21795214D-04 1.78279008D-04 4.56215846D-05
 ***** Axes restored to original set *****
 -------------------------------------------------------------------
 Center     Atomic                   Forces (Hartrees/Bohr)
 Number     Number              X              Y              Z
 -------------------------------------------------------------------
      1        6          -0.035601871    0.004934001    0.000015706
      2        6           0.028174629   -0.000972623   -0.000026640
      3        6           0.002860588   -0.005587977    0.000014553
      4        6          -0.002523624    0.005548997   -0.000003089
      5        6           0.012714758    0.024365146   -0.000019382
      6        6          -0.012840692   -0.033008962    0.000009692
      7        1          -0.004626316    0.009978401   -0.000013022
      8        1           0.006632015    0.009861737   -0.000002034
      9        1          -0.006521736    0.008875196    0.000006376
     10        6          -0.012857232   -0.024749838    0.000021215
     11        6          -0.028196292    0.001124150    0.000005204
     12        1           0.004550540   -0.009966961    0.000009240
     13        1           0.011827480    0.000939662   -0.000006141
     14        6           0.035544124   -0.005079568   -0.000041537
     15        6           0.012807467    0.033447431    0.000018151
     16        1           0.006513688   -0.008877346   -0.000001450
     17        1          -0.006629956   -0.009845248    0.000015287
     18        1          -0.011827568   -0.000986198   -0.000002130
 -------------------------------------------------------------------
 Cartesian Forces:  Max     0.035601871 RMS     0.013170104
 Leave Link  716 at Wed Apr  3 15:28:07 2024, MaxMem= 33554432000 cpu:               0.4 elap:               0.0
 (Enter /apps/gaussian/g16-c01-avx2/g16/l103.exe)

 GradGradGradGradGradGradGradGradGradGradGradGradGradGradGradGradGradGrad
 Berny optimization.
 FormGI is forming the generalized inverse of G from B-inverse, IUseBI=4.
 Internal  Forces:  Max     0.019712354 RMS     0.006087448
 Search for a local minimum.
 Step number   1 out of a maximum of  103
 All quantities printed in internal units (Hartrees-Bohrs-Radians)
 RMS Force = .60874D-02 SwitMx=.10000D-02 MixMth= 1
 Mixed Optimization -- RFO/linear search
 Second derivative matrix not updated -- first step.
 ITU=  0
     Eigenvalues ---    0.01806   0.01817   0.01818   0.01995   0.02012
     Eigenvalues ---    0.02032   0.02051   0.02129   0.02130   0.02159
     Eigenvalues ---    0.02159   0.02190   0.02222   0.02287   0.02305
     Eigenvalues ---    0.16000   0.16000   0.16000   0.16000   0.16000
     Eigenvalues ---    0.16000   0.16000   0.16000   0.22000   0.22000
     Eigenvalues ---    0.22333   0.22797   0.24282   0.24714   0.33644
     Eigenvalues ---    0.33645   0.33648   0.33659   0.33683   0.33686
     Eigenvalues ---    0.33687   0.33688   0.37465   0.39658   0.40110
     Eigenvalues ---    0.41032   0.42246   0.42558   0.42923   0.48396
     Eigenvalues ---    0.48613   0.49798   0.49828
 RFO step:  Lambda=-8.14852431D-03 EMin= 1.80597828D-02
 Linear search not attempted -- first point.
 Iteration  1 RMS(Cart)=  0.01391883 RMS(Int)=  0.00005249
[...]
 Frequencies --   1623.0735              3185.1598              3190.8632
 Red. masses --      5.8642                 1.1058                 1.0978
 Frc consts  --      9.1019                 6.6096                 6.5856
 IR Inten    --      0.0000                 0.0000                 0.0000
  Atom  AN      X      Y      Z        X      Y      Z        X      Y      Z
     1   6     0.18   0.19  -0.00    -0.02   0.04  -0.00     0.00  -0.01  -0.00
     2   6    -0.09  -0.08   0.00    -0.03  -0.04   0.00     0.00  -0.00  -0.00
     3   6     0.13   0.22  -0.00    -0.00   0.00   0.00    -0.00   0.00  -0.00
     4   6    -0.13  -0.22   0.00     0.00  -0.00  -0.00     0.00  -0.00   0.00
     5   6     0.04   0.12  -0.00     0.00   0.01  -0.00    -0.03  -0.05   0.00
     6   6    -0.06  -0.23   0.00     0.02   0.01  -0.00     0.01  -0.00  -0.00
     7   1    -0.11  -0.09   0.00     0.00   0.01   0.00    -0.35  -0.58   0.00
     8   1    -0.32  -0.08   0.00     0.19  -0.34   0.00    -0.02   0.04  -0.00
     9   1    -0.06  -0.11   0.00     0.26   0.48  -0.00     0.01   0.01  -0.00
    10   6    -0.04  -0.12   0.00    -0.00  -0.01   0.00     0.03   0.05  -0.00
    11   6     0.09   0.08  -0.00     0.03   0.04  -0.00    -0.00   0.00   0.00
    12   1     0.11   0.09  -0.00    -0.00  -0.01  -0.00     0.35   0.60  -0.00
    13   1    -0.07   0.36  -0.00    -0.21   0.01   0.00    -0.16  -0.01   0.00
    14   6    -0.18  -0.19   0.00     0.02  -0.04   0.00    -0.00   0.01   0.00
    15   6     0.06   0.23  -0.00    -0.02  -0.01   0.00    -0.01   0.00   0.00
    16   1     0.06   0.11  -0.00    -0.26  -0.48   0.00    -0.01  -0.00   0.00
    17   1     0.32   0.08  -0.00    -0.19   0.34  -0.00     0.03  -0.05   0.00
    18   1     0.07  -0.36   0.00     0.21  -0.01  -0.00     0.15   0.01  -0.00
                     43                     44                     45
                      A                      A                      A
 Frequencies --   3191.0656              3191.8264              3200.9173
 Red. masses --      1.0898                 1.0912                 1.1021
 Frc consts  --      6.5381                 6.5501                 6.6528
 IR Inten    --      0.3379                 0.5710                 0.0000
  Atom  AN      X      Y      Z        X      Y      Z        X      Y      Z
     1   6    -0.01   0.02  -0.00    -0.00   0.01  -0.00    -0.02   0.03  -0.00
     2   6    -0.02  -0.03   0.00    -0.02  -0.04   0.00     0.02   0.03  -0.00
     3   6     0.00   0.00  -0.00    -0.00   0.00   0.00     0.00  -0.00  -0.00
     4   6     0.00   0.00  -0.00    -0.00   0.00   0.00    -0.00   0.00   0.00
     5   6    -0.02  -0.03   0.00     0.02   0.04  -0.00     0.00   0.01  -0.00
     6   6     0.02   0.00  -0.00    -0.01  -0.00   0.00     0.04   0.00  -0.00
     7   1     0.23   0.39  -0.00    -0.24  -0.41   0.00     0.02   0.05  -0.00
     8   1     0.12  -0.21   0.00     0.06  -0.11   0.00     0.18  -0.31   0.00
     9   1     0.21   0.37  -0.00     0.24   0.42  -0.00    -0.22  -0.37   0.00
    10   6    -0.02  -0.03   0.00     0.02   0.04  -0.00    -0.00  -0.01   0.00
    11   6    -0.02  -0.03   0.00    -0.02  -0.04   0.00    -0.02  -0.03   0.00
    12   1     0.22   0.37  -0.00    -0.24  -0.41   0.00    -0.02  -0.05   0.00
    13   1    -0.24  -0.00   0.00     0.12   0.00  -0.00    -0.43   0.01   0.00
    14   6    -0.01   0.02  -0.00    -0.00   0.01  -0.00     0.02  -0.03   0.00
    15   6     0.02   0.00  -0.00    -0.01  -0.00   0.00    -0.04  -0.00   0.00
    16   1     0.21   0.37  -0.00     0.24   0.42  -0.00     0.22   0.37  -0.00
    17   1     0.12  -0.21   0.00     0.06  -0.12   0.00    -0.18   0.31  -0.00
    18   1    -0.24  -0.00   0.00     0.12   0.00  -0.00     0.43  -0.01  -0.00
                     46                     47                     48
                      A                      A                      A
 Frequencies --   3204.7845              3214.8335              3214.8479
 Red. masses --      1.0918                 1.0974                 1.0978
 Frc consts  --      6.6066                 6.6826                 6.6850
 IR Inten    --      0.8739                 2.3904                 0.1376
  Atom  AN      X      Y      Z        X      Y      Z        X      Y      Z
     1   6     0.02  -0.03   0.00    -0.02   0.03  -0.00    -0.02   0.04  -0.00
     2   6    -0.01  -0.02   0.00     0.01   0.01  -0.00     0.01   0.01  -0.00
     3   6     0.00   0.00  -0.00     0.00  -0.00   0.00    -0.00  -0.00  -0.00
     4   6     0.00   0.00  -0.00     0.00  -0.00  -0.00     0.00   0.00   0.00
     5   6    -0.01  -0.02   0.00    -0.00  -0.01   0.00    -0.01  -0.01   0.00
     6   6    -0.04   0.00   0.00    -0.03  -0.00   0.00    -0.05  -0.00   0.00
     7   1     0.12   0.20  -0.00     0.08   0.14  -0.00    -0.06  -0.10   0.00
     8   1    -0.22   0.38  -0.00     0.18  -0.32   0.00     0.27  -0.48   0.00
     9   1     0.12   0.21  -0.00    -0.05  -0.08   0.00    -0.08  -0.14   0.00
    10   6    -0.01  -0.02   0.00    -0.01  -0.01   0.00     0.00   0.01  -0.00
    11   6    -0.01  -0.02   0.00     0.01   0.01  -0.00    -0.01  -0.01   0.00
    12   1     0.12   0.20  -0.00     0.04   0.08  -0.00     0.09   0.15  -0.00
    13   1     0.44  -0.00  -0.00     0.35  -0.00  -0.00     0.60   0.00  -0.00
    14   6     0.02  -0.03   0.00    -0.02   0.05  -0.00     0.01  -0.03   0.00
    15   6    -0.04   0.00   0.00    -0.05  -0.00   0.00     0.03   0.00  -0.00
    16   1     0.12   0.21  -0.00    -0.08  -0.13   0.00     0.05   0.09  -0.00
    17   1    -0.22   0.38  -0.00     0.28  -0.50   0.00    -0.16   0.29  -0.00
    18   1     0.44  -0.00  -0.00     0.58  -0.00  -0.00    -0.37  -0.00   0.00

 -------------------
 - Thermochemistry -
 -------------------
 Temperature   298.150 Kelvin.  Pressure   1.00000 Atm.
 Atom     1 has atomic number  6 and mass  12.00000
 Atom     2 has atomic number  6 and mass  12.00000
 Atom     3 has atomic number  6 and mass  12.00000
 Atom     4 has atomic number  6 and mass  12.00000
 Atom     5 has atomic number  6 and mass  12.00000
 Atom     6 has atomic number  6 and mass  12.00000
 Atom     7 has atomic number  1 and mass   1.00783
 Atom     8 has atomic number  1 and mass   1.00783
 Atom     9 has atomic number  1 and mass   1.00783
 Atom    10 has atomic number  6 and mass  12.00000
 Atom    11 has atomic number  6 and mass  12.00000
 Atom    12 has atomic number  1 and mass   1.00783
 Atom    13 has atomic number  1 and mass   1.00783
 Atom    14 has atomic number  6 and mass  12.00000
 Atom    15 has atomic number  6 and mass  12.00000
 Atom    16 has atomic number  1 and mass   1.00783
 Atom    17 has atomic number  1 and mass   1.00783
 Atom    18 has atomic number  1 and mass   1.00783
 Molecular mass:   128.06260 amu.
 Principal axes and moments of inertia in atomic units:
                           1         2         3
     Eigenvalues --   570.718301468.878832039.59713
           X            1.00000  -0.00000  -0.00000
           Y            0.00000   1.00000   0.00000
           Z            0.00000  -0.00000   1.00000
 This molecule is an asymmetric top.
 Rotational symmetry number  1.
 Warning -- assumption of classical behavior for rotation
           may cause significant error
 Rotational temperatures (Kelvin)      0.15176     0.05897     0.04247
 Rotational constants (GHZ):           3.16223     1.22865     0.88485
 Zero-point vibrational energy     383727.5 (Joules/Mol)
                                   91.71307 (Kcal/Mol)
 Warning -- explicit consideration of  10 degrees of freedom as
           vibrations may cause significant error
 Vibrational temperatures:    225.62   262.69   279.58   517.80   543.17
          (Kelvin)            615.89   636.28   724.62   815.95   879.02
                             1089.37  1101.96  1116.12  1124.64  1168.00
                             1266.25  1361.37  1368.82  1415.94  1449.21
                             1484.56  1489.39  1497.02  1527.97  1561.43
                             1620.59  1718.08  1726.09  1781.06  1812.65
                             1882.62  2021.20  2034.73  2070.88  2121.01
                             2166.89  2170.83  2233.37  2261.22  2335.24
                             4582.73  4590.94  4591.23  4592.33  4605.41
                             4610.97  4625.43  4625.45
 
 Zero-point correction=                           0.146154 (Hartree/Particle)
 Thermal correction to Energy=                    0.153507
 Thermal correction to Enthalpy=                  0.154452
 Thermal correction to Gibbs Free Energy=         0.113728
 Sum of electronic and zero-point Energies=           -385.598341
 Sum of electronic and thermal Energies=              -385.590987
 Sum of electronic and thermal Enthalpies=            -385.590043
 Sum of electronic and thermal Free Energies=         -385.630767
 
                     E (Thermal)             CV                S
                      KCal/Mol        Cal/Mol-Kelvin    Cal/Mol-Kelvin
 Total                   96.327             29.870             85.710
 Electronic               0.000              0.000              1.377
 Translational            0.889              2.981             40.455
 Rotational               0.889              2.981             28.927
 Vibrational             94.550             23.909             14.951
 Vibration     1          0.620              1.895              2.588
 Vibration     2          0.630              1.863              2.302
 Vibration     3          0.635              1.848              2.186
 Vibration     4          0.734              1.555              1.123
 Vibration     5          0.748              1.518              1.049
 Vibration     6          0.790              1.409              0.865
 Vibration     7          0.802              1.378              0.820
 Vibration     8          0.859              1.242              0.649
 Vibration     9          0.923              1.102              0.510
 Vibration    10          0.970              1.009              0.431
                       Q            Log10(Q)             Ln(Q)
 Total Bot       0.488500D-52        -52.311135       -120.450840
 Total V=0       0.822275D+15         14.915017         34.343096
 Vib (Bot)       0.916064D-66        -66.038074       -152.058286
 Vib (Bot)    1  0.129048D+01          0.110750          0.255011
 Vib (Bot)    2  0.109910D+01          0.041038          0.094494
 Vib (Bot)    3  0.102832D+01          0.012126          0.027922
 Vib (Bot)    4  0.509339D+00         -0.292993         -0.674642
 Vib (Bot)    5  0.479755D+00         -0.318981         -0.734480
 Vib (Bot)    6  0.407650D+00         -0.389713         -0.897347
 Vib (Bot)    7  0.390205D+00         -0.408707         -0.941083
 Vib (Bot)    8  0.325279D+00         -0.487744         -1.123073
 Vib (Bot)    9  0.272155D+00         -0.565183         -1.301383
 Vib (Bot)   10  0.241652D+00         -0.616810         -1.420259
 Vib (V=0)       0.154198D+02          1.188078          2.735650
 Vib (V=0)    1  0.188395D+01          0.275070          0.633373
 Vib (V=0)    2  0.170749D+01          0.232358          0.535023
 Vib (V=0)    3  0.164343D+01          0.215751          0.496786
 Vib (V=0)    4  0.121374D+01          0.084126          0.193707
 Vib (V=0)    5  0.119294D+01          0.076618          0.176420
 Vib (V=0)    6  0.114512D+01          0.058851          0.135508
 Vib (V=0)    7  0.113424D+01          0.054705          0.125963
 Vib (V=0)    8  0.109649D+01          0.040007          0.092119
 Vib (V=0)    9  0.106927D+01          0.029087          0.066976
 Vib (V=0)   10  0.105533D+01          0.023390          0.053857
 Electronic      0.200000D+01          0.301030          0.693147
 Translational   0.569623D+08          7.755587         17.857900
 Rotational      0.468082D+06          5.670322         13.056398
 ***** Axes restored to original set *****
 -------------------------------------------------------------------
 Center     Atomic                   Forces (Hartrees/Bohr)
 Number     Number              X              Y              Z
 -------------------------------------------------------------------
      1        6           0.000257603   -0.000112375   -0.000000489
      2        6          -0.000217811    0.000248463    0.000001174
      3        6           0.000269421   -0.000460194   -0.000000402
      4        6          -0.000272332    0.000460985    0.000000025
      5        6           0.000099101   -0.000311872    0.000000640
      6        6           0.000027818    0.000280976   -0.000000301
      7        1           0.000081923   -0.000074489    0.000000109
      8        1           0.000042003   -0.000078914    0.000000056
      9        1           0.000024625   -0.000108727   -0.000000350
     10        6          -0.000103259    0.000313139   -0.000000601
     11        6           0.000215303   -0.000253545   -0.000000109
     12        1          -0.000080007    0.000075229   -0.000000284
     13        1          -0.000047966    0.000074570    0.000000157
     14        6          -0.000252087    0.000115900    0.000000440
     15        6          -0.000024939   -0.000283860    0.000000003
     16        1          -0.000024205    0.000109952   -0.000000079
     17        1          -0.000043027    0.000079127   -0.000000112
     18        1           0.000047837   -0.000074365    0.000000122
 -------------------------------------------------------------------
 Cartesian Forces:  Max     0.000460985 RMS     0.000161289
 FormGI is forming the generalized inverse of G from B-inverse, IUseBI=4.
 Leave Link  716 at Wed Apr  3 16:18:05 2024, MaxMem= 33554432000 cpu:               0.4 elap:               0.0
 (Enter /apps/gaussian/g16-c01-avx2/g16/l718.exe)

 **********************************************************************

             Generation of the Franck-Condon spectrum

 **********************************************************************


     ==================================================
            Parameters for vibronic calculations
     ==================================================
 

 Using the following non-standard input for vibronic spectroscopy:
 SpecHwHm=500 SpecRes=20 InpDEner=0.150
 --- end of non-standard input.

     ==================================================
               Information on the Simulation
     ==================================================

 General framework: TIME-INDEPENDENT
 Spectroscopy: ONE-PHOTON EMISSION
 Model for to the transition: ADIABATIC HESSIAN
 Approx. of the electronic transition moment(s): FCHT
 Temperature effect are not taken into account.

     ==================================================
                  Treatment of Input Data
     ==================================================

 Initial State
 -------------
 Data taken from checkpoint file "Naphthalene_c_20-500-2.chk"
 Normal modes recovered from file.

 Final State
 -----------
 Data taken from current calculation.
 Normal modes recovered from file.

 NOTE: Using excited electronic state number  1.

     ==================================================
                  Superposition Procedure
     ==================================================

 Initial state structure is set in Eckart orientation.
 Final state structure is superposed to it.

              New orientation in initial state              
 ---------------------------------------------------------------------
 Center     Atomic                     Coordinates (Angstroms)
 Number     Number                        X           Y           Z
 ---------------------------------------------------------------------
      1          6                   -2.405827   -0.725734   -0.000000
      2          6                   -1.235050   -1.424698   -0.000000
      3          6                   -0.000001   -0.739491    0.000000
      4          6                    0.000000    0.739491    0.000000
      5          6                   -1.235048    1.424698    0.000000
      6          6                   -2.405826    0.725736   -0.000000
      7          1                    1.236908   -2.506615    0.000000
      8          1                   -3.355248   -1.245007   -0.000000
      9          1                   -1.236911   -2.506614   -0.000000
     10          6                    1.235048   -1.424699    0.000000
     11          6                    1.235050    1.424698   -0.000000
     12          1                   -1.236908    2.506614    0.000000
     13          1                   -3.355247    1.245008   -0.000000
     14          6                    2.405827    0.725735    0.000000
     15          6                    2.405827   -0.725735   -0.000000
     16          1                    1.236911    2.506614   -0.000000
     17          1                    3.355249    1.245007    0.000000
     18          1                    3.355248   -1.245009   -0.000000
 ---------------------------------------------------------------------
               New orientation in final state               
 ---------------------------------------------------------------------
 Center     Atomic                     Coordinates (Angstroms)
 Number     Number                        X           Y           Z
 ---------------------------------------------------------------------
      1          6                   -2.442506   -0.692912   -0.000002
      2          6                   -1.231528   -1.396536   -0.000003
      3          6                   -0.000006   -0.713197    0.000003
      4          6                    0.000013    0.713191    0.000002
      5          6                   -1.231497    1.396520   -0.000000
      6          6                   -2.442489    0.692901   -0.000000
      7          1                    1.238487   -2.479527    0.000004
      8          1                   -3.377591   -1.236627   -0.000004
      9          1                   -1.238492   -2.479532    0.000003
     10          6                    1.231503   -1.396531    0.000005
     11          6                    1.231529    1.396545    0.000002
     12          1                   -1.238494    2.479517    0.000006
     13          1                   -3.377560    1.236641   -0.000002
     14          6                    2.442497    0.692916   -0.000004
     15          6                    2.442485   -0.692897   -0.000002
     16          1                    1.238480    2.479539    0.000005
     17          1                    3.377590    1.236619   -0.000005
     18          1                    3.377562   -1.236629   -0.000007
 ---------------------------------------------------------------------

     ==================================================
                 Duschinsky Transformation
     ==================================================

     ==================================================
              Calculations of Band Intensities
     ==================================================

 -- To: vibronic fundamental state --
    Spectrum progression:    0.00%
      (with a sum of the Franck-Condon Factors:   2.83%)

 -- To: single overtones --
    Spectrum progression:    2.80%
      (with a sum of the Franck-Condon Factors:  11.32%)

 -- To: combinations of  2 simultaneously excited modes --
    Spectrum progression:   11.47%
      (with a sum of the Franck-Condon Factors:  26.08%)

 ERROR: Low progression after class 2. Total convergence = 11.5%.
        The vibronic spectrum will likely be unreliable. Stopping.
 Error termination via Lnk1e in /apps/gaussian/g16-c01-avx2/g16/l718.exe at Wed Apr  3 16:18:11 2024.
 Job cpu time:       0 days  0 hours  3 minutes 15.0 seconds.
 Elapsed time:       0 days  0 hours  0 minutes  6.2 seconds.
 File lengths (MBytes):  RWF=      6 Int=      0 D2E=      0 Chk=     15 Scr=      1
