 Entering Gaussian System, Link 0=g16
 Input=CH2O_6-31G_linked.gjf
 Output=CH2O_6-31G_linked.log
 Initial command:
 /apps/gaussian/g16-c01-avx2/g16/l1.exe "/var/tmp/pbs.8976868.pbs/Gau-1606735.inp" -scrdir="/var/tmp/pbs.8976868.pbs/"
 Entering Link 1 = /apps/gaussian/g16-c01-avx2/g16/l1.exe PID=   1606902.
  
 Copyright (c) 1988-2019, Gaussian, Inc.  All Rights Reserved.
  
 This is part of the Gaussian(R) 16 program.  It is based on
 the Gaussian(R) 09 system (copyright 2009, Gaussian, Inc.),
 the Gaussian(R) 03 system (copyright 2003, Gaussian, Inc.),
 the Gaussian(R) 98 system (copyright 1998, Gaussian, Inc.),
 the Gaussian(R) 94 system (copyright 1995, Gaussian, Inc.),
 the Gaussian 92(TM) system (copyright 1992, Gaussian, Inc.),
 the Gaussian 90(TM) system (copyright 1990, Gaussian, Inc.),
 the Gaussian 88(TM) system (copyright 1988, Gaussian, Inc.),
 the Gaussian 86(TM) system (copyright 1986, Carnegie Mellon
 University), and the Gaussian 82(TM) system (copyright 1983,
 Carnegie Mellon University). Gaussian is a federally registered
 trademark of Gaussian, Inc.
  
 This software contains proprietary and confidential information,
 including trade secrets, belonging to Gaussian, Inc.
  
 This software is provided under written license and may be
 used, copied, transmitted, or stored only in accord with that
 written license.
  
 The following legend is applicable only to US Government
 contracts under FAR:
  
                    RESTRICTED RIGHTS LEGEND
  
 Use, reproduction and disclosure by the US Government is
 subject to restrictions as set forth in subparagraphs (a)
 and (c) of the Commercial Computer Software - Restricted
 Rights clause in FAR 52.227-19.
  
 Gaussian, Inc.
 340 Quinnipiac St., Bldg. 40, Wallingford CT 06492
  
  
 ---------------------------------------------------------------
 Warning -- This program may not be used in any manner that
 competes with the business of Gaussian, Inc. or will provide
 assistance to any competitor of Gaussian, Inc.  The licensee
 of this program is prohibited from giving any competitor of
 Gaussian, Inc. access to this program.  By using this program,
 the user acknowledges that Gaussian, Inc. is engaged in the
 business of creating and licensing software in the field of
 computational chemistry and represents and warrants to the
 licensee that it is not a competitor of Gaussian, Inc. and that
 it will not use this program in any manner prohibited above.
 ---------------------------------------------------------------
  

 Cite this work as:
 Gaussian 16, Revision C.01,
 M. J. Frisch, G. W. Trucks, H. B. Schlegel, G. E. Scuseria, 
 M. A. Robb, J. R. Cheeseman, G. Scalmani, V. Barone, 
 G. A. Petersson, H. Nakatsuji, X. Li, M. Caricato, A. V. Marenich, 
 J. Bloino, B. G. Janesko, R. Gomperts, B. Mennucci, H. P. Hratchian, 
 J. V. Ortiz, A. F. Izmaylov, J. L. Sonnenberg, D. Williams-Young, 
 F. Ding, F. Lipparini, F. Egidi, J. Goings, B. Peng, A. Petrone, 
 T. Henderson, D. Ranasinghe, V. G. Zakrzewski, J. Gao, N. Rega, 
 G. Zheng, W. Liang, M. Hada, M. Ehara, K. Toyota, R. Fukuda, 
 J. Hasegawa, M. Ishida, T. Nakajima, Y. Honda, O. Kitao, H. Nakai, 
 T. Vreven, K. Throssell, J. A. Montgomery, Jr., J. E. Peralta, 
 F. Ogliaro, M. J. Bearpark, J. J. Heyd, E. N. Brothers, K. N. Kudin, 
 V. N. Staroverov, T. A. Keith, R. Kobayashi, J. Normand, 
 K. Raghavachari, A. P. Rendell, J. C. Burant, S. S. Iyengar, 
 J. Tomasi, M. Cossi, J. M. Millam, M. Klene, C. Adamo, R. Cammi, 
 J. W. Ochterski, R. L. Martin, K. Morokuma, O. Farkas, 
 J. B. Foresman, and D. J. Fox, Gaussian, Inc., Wallingford CT, 2019.
 
 ******************************************
 Gaussian 16:  ES64L-G16RevC.01  3-Jul-2019
                23-Feb-2024 
 ******************************************
 %chk=6-31G_job1
 %NProcShared=32
 Will use up to   32 processors via shared memory.
 %Mem=110GB
 ---------------------------------------
 #p HF/6-31G* geom=connectivity Opt Freq
 ---------------------------------------
 1/18=20,19=15,38=1,57=2/1,3;
 2/9=110,12=2,17=6,18=5,40=1/2;
 3/5=1,6=6,7=1,11=9,25=1,30=1,71=1/1,2,3;
 4//1;
 5/5=2,38=5/2;
 6/7=2,8=2,9=2,10=2,28=1/1;
 7//1,2,3,16;
 1/18=20,19=15/3(2);
 2/9=110/2;
 99//99;
 2/9=110/2;
 3/5=1,6=6,7=1,11=9,25=1,30=1,71=1/1,2,3;
 4/5=5,16=3,69=1/1;
 5/5=2,38=5/2;
 7//1,2,3,16;
 1/18=20,19=15/3(-5);
 2/9=110/2;
 6/7=2,8=2,9=2,10=2,19=2,28=1/1;
 99/9=1/99;
 Leave Link    1 at Fri Feb 23 12:24:31 2024, MaxMem= 14763950080 cpu:               0.4 elap:               0.0
 (Enter /apps/gaussian/g16-c01-avx2/g16/l101.exe)
 --------------------------------------------------------------------
 Ground state optimization and frequency calculation for formaldehyde
 --------------------------------------------------------------------
 Symbolic Z-matrix:
 Charge =  0 Multiplicity = 1
 C                    -0.52227  -0.40421   0. 
 H                     0.0129   -1.33076   0. 
 H                    -1.59227  -0.40441   0. 
 O                     0.10673   0.68571   0. 
 
 ITRead=  0  0  0  0
 MicOpt= -1 -1 -1 -1
 NAtoms=      4 NQM=        4 NQMF=       0 NMMI=      0 NMMIF=      0
                NMic=       0 NMicF=      0.
                    Isotopes and Nuclear Properties:
 (Nuclear quadrupole moments (NQMom) in fm**2, nuclear magnetic moments (NMagM)
  in nuclear magnetons)

  Atom         1           2           3           4
 IAtWgt=          12           1           1          16
 AtmWgt=  12.0000000   1.0078250   1.0078250  15.9949146
 NucSpn=           0           1           1           0
 AtZEff=  -0.0000000  -0.0000000  -0.0000000  -0.0000000
 NQMom=    0.0000000   0.0000000   0.0000000   0.0000000
 NMagM=    0.0000000   2.7928460   2.7928460   0.0000000
 AtZNuc=   6.0000000   1.0000000   1.0000000   8.0000000
 Leave Link  101 at Fri Feb 23 12:24:38 2024, MaxMem= 14763950080 cpu:               4.2 elap:               0.1
 (Enter /apps/gaussian/g16-c01-avx2/g16/l103.exe)

 GradGradGradGradGradGradGradGradGradGradGradGradGradGradGradGradGradGrad
 Berny optimization.
 Initialization pass.
                           ----------------------------
                           !    Initial Parameters    !
                           ! (Angstroms and Degrees)  !
 --------------------------                            --------------------------
 ! Name  Definition              Value          Derivative Info.                !
 --------------------------------------------------------------------------------
 ! R1    R(1,2)                  1.07           estimate D2E/DX2                !
 ! R2    R(1,3)                  1.07           estimate D2E/DX2                !
 ! R3    R(1,4)                  1.2584         estimate D2E/DX2                !
 ! A1    A(2,1,3)              120.0            estimate D2E/DX2                !
 ! A2    A(2,1,4)              120.0            estimate D2E/DX2                !
 ! A3    A(3,1,4)              120.0            estimate D2E/DX2                !
 ! D1    D(2,1,4,3)            180.0            estimate D2E/DX2                !
 --------------------------------------------------------------------------------
 Trust Radius=3.00D-01 FncErr=1.00D-07 GrdErr=1.00D-07 EigMax=2.50D+02 EigMin=1.00D-04
 Number of steps in this run=     20 maximum allowed number of steps=    100.
 GradGradGradGradGradGradGradGradGradGradGradGradGradGradGradGradGradGrad

 Leave Link  103 at Fri Feb 23 12:24:39 2024, MaxMem= 14763950080 cpu:               0.3 elap:               0.0
 (Enter /apps/gaussian/g16-c01-avx2/g16/l202.exe)
                          Input orientation:                          
 ---------------------------------------------------------------------
 Center     Atomic      Atomic             Coordinates (Angstroms)
 Number     Number       Type             X           Y           Z
 ---------------------------------------------------------------------
      1          6           0       -0.522268   -0.404213    0.000000
      2          1           0        0.012900   -1.330763    0.000000
      3          1           0       -1.592268   -0.404408    0.000000
      4          8           0        0.106734    0.685708    0.000000
 ---------------------------------------------------------------------
                    Distance matrix (angstroms):
                    1          2          3          4
     1  C    0.000000
     2  H    1.070000   0.000000
     3  H    1.070000   1.853294   0.000000
     4  O    1.258400   2.018653   2.018653   0.000000
 Stoichiometry    CH2O
 Framework group  C2V[C2(CO),SGV(H2)]
 Deg. of freedom     3
 Full point group                 C2V     NOp   4
 Largest Abelian subgroup         C2V     NOp   4
 Largest concise Abelian subgroup C2      NOp   2
                         Standard orientation:                         
 ---------------------------------------------------------------------
 Center     Atomic      Atomic             Coordinates (Angstroms)
 Number     Number       Type             X           Y           Z
 ---------------------------------------------------------------------
      1          6           0        0.000000   -0.000000   -0.562325
      2          1           0        0.000000   -0.926647   -1.097325
      3          1           0        0.000000    0.926647   -1.097325
      4          8           0        0.000000   -0.000000    0.696075
 ---------------------------------------------------------------------
 Rotational constants (GHZ):         291.9935432          36.5845887          32.5111827
 Leave Link  202 at Fri Feb 23 12:24:41 2024, MaxMem= 14763950080 cpu:               0.6 elap:               0.0
 (Enter /apps/gaussian/g16-c01-avx2/g16/l301.exe)
 Standard basis: 6-31G(d) (6D, 7F)
 Ernie: Thresh=  0.10000D-02 Tol=  0.10000D-05 Strict=F.
 There are    18 symmetry adapted cartesian basis functions of A1  symmetry.
 There are     2 symmetry adapted cartesian basis functions of A2  symmetry.
 There are     6 symmetry adapted cartesian basis functions of B1  symmetry.
 There are     8 symmetry adapted cartesian basis functions of B2  symmetry.
 There are    18 symmetry adapted basis functions of A1  symmetry.
 There are     2 symmetry adapted basis functions of A2  symmetry.
 There are     6 symmetry adapted basis functions of B1  symmetry.
 There are     8 symmetry adapted basis functions of B2  symmetry.
    34 basis functions,    64 primitive gaussians,    34 cartesian basis functions
     8 alpha electrons        8 beta electrons
       nuclear repulsion energy        30.5992945771 Hartrees.
 IExCor=    0 DFT=F Ex=HF Corr=None ExCW=0 ScaHFX=  1.000000
 ScaDFX=  1.000000  1.000000  1.000000  1.000000 ScalE2=  1.000000  1.000000
 IRadAn=      5 IRanWt=     -1 IRanGd=            0 ICorTp=0 IEmpDi=  4
 NAtoms=    4 NActive=    4 NUniq=    3 SFac= 1.78D+00 NAtFMM=   60 NAOKFM=F Big=F
 Integral buffers will be    131072 words long.
 Raffenetti 1 integral format.
 Two-electron integral symmetry is turned on.
 Leave Link  301 at Fri Feb 23 12:24:46 2024, MaxMem= 14763950080 cpu:               1.3 elap:               0.1
 (Enter /apps/gaussian/g16-c01-avx2/g16/l302.exe)
 NPDir=0 NMtPBC=     1 NCelOv=     1 NCel=       1 NClECP=     1 NCelD=      1
         NCelK=      1 NCelE2=     1 NClLst=     1 CellRange=     0.0.
 One-electron integrals computed using PRISM.
 One-electron integral symmetry used in STVInt
 NBasis=    34 RedAO= T EigKep=  9.98D-03  NBF=    18     2     6     8
 NBsUse=    34 1.00D-06 EigRej= -1.00D+00 NBFU=    18     2     6     8
 Leave Link  302 at Fri Feb 23 12:24:47 2024, MaxMem= 14763950080 cpu:               1.5 elap:               0.1
 (Enter /apps/gaussian/g16-c01-avx2/g16/l303.exe)
 DipDrv:  MaxL=1.
 Leave Link  303 at Fri Feb 23 12:25:04 2024, MaxMem= 14763950080 cpu:               0.3 elap:               0.0
 (Enter /apps/gaussian/g16-c01-avx2/g16/l401.exe)
 ExpMin= 1.61D-01 ExpMax= 5.48D+03 ExpMxC= 8.25D+02 IAcc=3 IRadAn=         5 AccDes= 0.00D+00
 Harris functional with IExCor=  205 and IRadAn=       5 diagonalized for initial guess.
 HarFok:  IExCor=  205 AccDes= 0.00D+00 IRadAn=         5 IDoV= 1 UseB2=F ITyADJ=14
 ICtDFT=  3500011 ScaDFX=  1.000000  1.000000  1.000000  1.000000
 FoFCou: FMM=F IPFlag=           0 FMFlag=      100000 FMFlg1=           0
         NFxFlg=           0 DoJE=T BraDBF=F KetDBF=T FulRan=T
         wScrn=  0.000000 ICntrl=       500 IOpCl=  0 I1Cent=   200000004 NGrid=           0
         NMat0=    1 NMatS0=      1 NMatT0=    0 NMatD0=    1 NMtDS0=    0 NMtDT0=    0
 Petite list used in FoFCou.
 Harris En= -113.934229121331    
 JPrj=0 DoOrth=F DoCkMO=F.
 Initial guess orbital symmetries:
       Occupied  (A1) (A1) (A1) (A1) (B2) (A1) (B1) (B2)
       Virtual   (B1) (A1) (B2) (A1) (B1) (A1) (B2) (A1) (A1) (B2)
                 (B1) (A1) (B2) (A1) (B1) (A2) (A1) (B2) (A2) (A1)
                 (A1) (B1) (B2) (A1) (A1) (A1)
 The electronic state of the initial guess is 1-A1.
 Leave Link  401 at Fri Feb 23 12:25:08 2024, MaxMem= 14763950080 cpu:              15.0 elap:               0.5
 (Enter /apps/gaussian/g16-c01-avx2/g16/l502.exe)
 Keep R1 ints in memory in symmetry-blocked form, NReq=6768192.
 FoFCou: FMM=F IPFlag=           0 FMFlag=           0 FMFlg1=           0
         NFxFlg=           0 DoJE=F BraDBF=F KetDBF=F FulRan=T
         wScrn=  0.000000 ICntrl=       600 IOpCl=  0 I1Cent=           0 NGrid=           0
         NMat0=    1 NMatS0=    595 NMatT0=    0 NMatD0=    1 NMtDS0=    0 NMtDT0=    0
 Petite list used in FoFCou.
 Closed shell SCF:
 Using DIIS extrapolation, IDIIS=  1040.
 NGot= 14763950080 LenX= 14763893126 LenY= 14763891529
 Requested convergence on RMS density matrix=1.00D-08 within 128 cycles.
 Requested convergence on MAX density matrix=1.00D-06.
 Requested convergence on             energy=1.00D-06.
 No special actions if energy rises.

 Cycle   1  Pass 1  IDiag  1:
 E= -113.798029242634    
 DIIS: error= 4.76D-02 at cycle   1 NSaved=   1.
 NSaved= 1 IEnMin= 1 EnMin= -113.798029242634     IErMin= 1 ErrMin= 4.76D-02
 ErrMax= 4.76D-02  0.00D+00 EMaxC= 1.00D-01 BMatC= 1.20D-01 BMatP= 1.20D-01
 IDIUse=3 WtCom= 5.24D-01 WtEn= 4.76D-01
 Coeff-Com:  0.100D+01
 Coeff-En:   0.100D+01
 Coeff:      0.100D+01
 Gap=     0.550 Goal=   None    Shift=    0.000
 GapD=    0.550 DampG=2.000 DampE=0.500 DampFc=1.0000 IDamp=-1.
 RMSDP=7.50D-03 MaxDP=9.40D-02              OVMax= 1.09D-01

 Cycle   2  Pass 1  IDiag  1:
 E= -113.842101728204     Delta-E=       -0.044072485569 Rises=F Damp=F
 DIIS: error= 2.48D-02 at cycle   2 NSaved=   2.
 NSaved= 2 IEnMin= 2 EnMin= -113.842101728204     IErMin= 2 ErrMin= 2.48D-02
 ErrMax= 2.48D-02  0.00D+00 EMaxC= 1.00D-01 BMatC= 2.15D-02 BMatP= 1.20D-01
 IDIUse=3 WtCom= 7.52D-01 WtEn= 2.48D-01
 Coeff-Com:  0.223D+00 0.777D+00
 Coeff-En:   0.000D+00 0.100D+01
 Coeff:      0.168D+00 0.832D+00
 Gap=     0.594 Goal=   None    Shift=    0.000
 RMSDP=4.30D-03 MaxDP=4.64D-02 DE=-4.41D-02 OVMax= 5.93D-02

 Cycle   3  Pass 1  IDiag  1:
 E= -113.853196167158     Delta-E=       -0.011094438954 Rises=F Damp=F
 DIIS: error= 1.40D-02 at cycle   3 NSaved=   3.
 NSaved= 3 IEnMin= 3 EnMin= -113.853196167158     IErMin= 3 ErrMin= 1.40D-02
 ErrMax= 1.40D-02  0.00D+00 EMaxC= 1.00D-01 BMatC= 5.14D-03 BMatP= 2.15D-02
 IDIUse=3 WtCom= 8.60D-01 WtEn= 1.40D-01
 Coeff-Com: -0.237D-01 0.312D+00 0.712D+00
 Coeff-En:   0.000D+00 0.106D+00 0.894D+00
 Coeff:     -0.204D-01 0.283D+00 0.737D+00
 Gap=     0.565 Goal=   None    Shift=    0.000
 RMSDP=1.35D-03 MaxDP=1.94D-02 DE=-1.11D-02 OVMax= 2.83D-02

 Cycle   4  Pass 1  IDiag  1:
 E= -113.856895357681     Delta-E=       -0.003699190523 Rises=F Damp=F
 DIIS: error= 2.11D-03 at cycle   4 NSaved=   4.
 NSaved= 4 IEnMin= 4 EnMin= -113.856895357681     IErMin= 4 ErrMin= 2.11D-03
 ErrMax= 2.11D-03  0.00D+00 EMaxC= 1.00D-01 BMatC= 1.40D-04 BMatP= 5.14D-03
 IDIUse=3 WtCom= 9.79D-01 WtEn= 2.11D-02
 Coeff-Com: -0.808D-02 0.263D-01 0.184D+00 0.798D+00
 Coeff-En:   0.000D+00 0.000D+00 0.000D+00 0.100D+01
 Coeff:     -0.790D-02 0.258D-01 0.180D+00 0.802D+00
 Gap=     0.568 Goal=   None    Shift=    0.000
 RMSDP=2.82D-04 MaxDP=2.31D-03 DE=-3.70D-03 OVMax= 2.95D-03

 Cycle   5  Pass 1  IDiag  1:
 E= -113.857010666556     Delta-E=       -0.000115308874 Rises=F Damp=F
 DIIS: error= 4.58D-04 at cycle   5 NSaved=   5.
 NSaved= 5 IEnMin= 5 EnMin= -113.857010666556     IErMin= 5 ErrMin= 4.58D-04
 ErrMax= 4.58D-04  0.00D+00 EMaxC= 1.00D-01 BMatC= 3.30D-06 BMatP= 1.40D-04
 IDIUse=3 WtCom= 9.95D-01 WtEn= 4.58D-03
 Coeff-Com:  0.280D-02-0.250D-01-0.778D-01-0.197D+00 0.130D+01
 Coeff-En:   0.000D+00 0.000D+00 0.000D+00 0.000D+00 0.100D+01
 Coeff:      0.279D-02-0.249D-01-0.775D-01-0.196D+00 0.130D+01
 Gap=     0.569 Goal=   None    Shift=    0.000
 RMSDP=1.21D-04 MaxDP=1.24D-03 DE=-1.15D-04 OVMax= 1.91D-03

 Cycle   6  Pass 1  IDiag  1:
 E= -113.857020304449     Delta-E=       -0.000009637893 Rises=F Damp=F
 DIIS: error= 1.41D-04 at cycle   6 NSaved=   6.
 NSaved= 6 IEnMin= 6 EnMin= -113.857020304449     IErMin= 6 ErrMin= 1.41D-04
 ErrMax= 1.41D-04  0.00D+00 EMaxC= 1.00D-01 BMatC= 5.92D-07 BMatP= 3.30D-06
 IDIUse=3 WtCom= 9.99D-01 WtEn= 1.41D-03
 Coeff-Com: -0.857D-03 0.976D-02 0.307D-01 0.124D-01-0.566D+00 0.151D+01
 Coeff-En:   0.000D+00 0.000D+00 0.000D+00 0.000D+00 0.000D+00 0.100D+01
 Coeff:     -0.856D-03 0.974D-02 0.307D-01 0.124D-01-0.565D+00 0.151D+01
 Gap=     0.570 Goal=   None    Shift=    0.000
 RMSDP=5.15D-05 MaxDP=4.56D-04 DE=-9.64D-06 OVMax= 8.77D-04

 Cycle   7  Pass 1  IDiag  1:
 E= -113.857021933625     Delta-E=       -0.000001629176 Rises=F Damp=F
 DIIS: error= 4.18D-05 at cycle   7 NSaved=   7.
 NSaved= 7 IEnMin= 7 EnMin= -113.857021933625     IErMin= 7 ErrMin= 4.18D-05
 ErrMax= 4.18D-05  0.00D+00 EMaxC= 1.00D-01 BMatC= 4.96D-08 BMatP= 5.92D-07
 IDIUse=1 WtCom= 1.00D+00 WtEn= 0.00D+00
 Coeff-Com:  0.741D-05-0.815D-03-0.159D-02 0.768D-02 0.871D-01-0.602D+00
 Coeff-Com:  0.151D+01
 Coeff:      0.741D-05-0.815D-03-0.159D-02 0.768D-02 0.871D-01-0.602D+00
 Coeff:      0.151D+01
 Gap=     0.570 Goal=   None    Shift=    0.000
 RMSDP=1.80D-05 MaxDP=1.55D-04 DE=-1.63D-06 OVMax= 3.37D-04

 Cycle   8  Pass 1  IDiag  1:
 E= -113.857022092642     Delta-E=       -0.000000159016 Rises=F Damp=F
 DIIS: error= 1.01D-05 at cycle   8 NSaved=   8.
 NSaved= 8 IEnMin= 8 EnMin= -113.857022092642     IErMin= 8 ErrMin= 1.01D-05
 ErrMax= 1.01D-05  0.00D+00 EMaxC= 1.00D-01 BMatC= 1.81D-09 BMatP= 4.96D-08
 IDIUse=1 WtCom= 1.00D+00 WtEn= 0.00D+00
 Coeff-Com:  0.464D-04-0.326D-03-0.107D-02-0.480D-02-0.734D-03 0.170D+00
 Coeff-Com: -0.664D+00 0.150D+01
 Coeff:      0.464D-04-0.326D-03-0.107D-02-0.480D-02-0.734D-03 0.170D+00
 Coeff:     -0.664D+00 0.150D+01
 Gap=     0.570 Goal=   None    Shift=    0.000
 RMSDP=3.29D-06 MaxDP=3.28D-05 DE=-1.59D-07 OVMax= 4.51D-05

 Cycle   9  Pass 1  IDiag  1:
 E= -113.857022097421     Delta-E=       -0.000000004779 Rises=F Damp=F
 DIIS: error= 1.19D-06 at cycle   9 NSaved=   9.
 NSaved= 9 IEnMin= 9 EnMin= -113.857022097421     IErMin= 9 ErrMin= 1.19D-06
 ErrMax= 1.19D-06  0.00D+00 EMaxC= 1.00D-01 BMatC= 2.24D-11 BMatP= 1.81D-09
 IDIUse=1 WtCom= 1.00D+00 WtEn= 0.00D+00
 Coeff-Com: -0.150D-04 0.134D-03 0.438D-03 0.120D-02-0.405D-02-0.250D-01
 Coeff-Com:  0.135D+00-0.402D+00 0.129D+01
 Coeff:     -0.150D-04 0.134D-03 0.438D-03 0.120D-02-0.405D-02-0.250D-01
 Coeff:      0.135D+00-0.402D+00 0.129D+01
 Gap=     0.570 Goal=   None    Shift=    0.000
 RMSDP=3.50D-07 MaxDP=3.45D-06 DE=-4.78D-09 OVMax= 3.67D-06

 Cycle  10  Pass 1  IDiag  1:
 E= -113.857022097463     Delta-E=       -0.000000000043 Rises=F Damp=F
 DIIS: error= 8.45D-08 at cycle  10 NSaved=  10.
 NSaved=10 IEnMin=10 EnMin= -113.857022097463     IErMin=10 ErrMin= 8.45D-08
 ErrMax= 8.45D-08  0.00D+00 EMaxC= 1.00D-01 BMatC= 3.39D-13 BMatP= 2.24D-11
 IDIUse=1 WtCom= 1.00D+00 WtEn= 0.00D+00
 Coeff-Com:  0.126D-05-0.131D-04-0.452D-04-0.637D-04 0.641D-03 0.245D-03
 Coeff-Com: -0.658D-02 0.295D-01-0.191D+00 0.117D+01
 Coeff:      0.126D-05-0.131D-04-0.452D-04-0.637D-04 0.641D-03 0.245D-03
 Coeff:     -0.658D-02 0.295D-01-0.191D+00 0.117D+01
 Gap=     0.570 Goal=   None    Shift=    0.000
 RMSDP=4.11D-08 MaxDP=3.55D-07 DE=-4.27D-11 OVMax= 3.91D-07

 Cycle  11  Pass 1  IDiag  1:
 E= -113.857022097464     Delta-E=       -0.000000000000 Rises=F Damp=F
 DIIS: error= 1.98D-08 at cycle  11 NSaved=  11.
 NSaved=11 IEnMin=11 EnMin= -113.857022097464     IErMin=11 ErrMin= 1.98D-08
 ErrMax= 1.98D-08  0.00D+00 EMaxC= 1.00D-01 BMatC= 7.23D-15 BMatP= 3.39D-13
 IDIUse=1 WtCom= 1.00D+00 WtEn= 0.00D+00
 Coeff-Com: -0.512D-07 0.681D-06 0.342D-05-0.351D-05-0.780D-04 0.295D-03
 Coeff-Com: -0.632D-03 0.123D-03 0.144D-01-0.202D+00 0.119D+01
 Coeff:     -0.512D-07 0.681D-06 0.342D-05-0.351D-05-0.780D-04 0.295D-03
 Coeff:     -0.632D-03 0.123D-03 0.144D-01-0.202D+00 0.119D+01
 Gap=     0.570 Goal=   None    Shift=    0.000
 RMSDP=4.81D-09 MaxDP=4.71D-08 DE=-4.55D-13 OVMax= 5.10D-08

 SCF Done:  E(RHF) =  -113.857022097     A.U. after   11 cycles
            NFock= 11  Conv=0.48D-08     -V/T= 2.0039
 KE= 1.134156333092D+02 PE=-3.294179401649D+02 EE= 7.154599018110D+01
 Leave Link  502 at Fri Feb 23 12:25:09 2024, MaxMem= 14763950080 cpu:               2.6 elap:               0.1
 (Enter /apps/gaussian/g16-c01-avx2/g16/l601.exe)
 Copying SCF densities to generalized density rwf, IOpCl= 0 IROHF=0.

 **********************************************************************

            Population analysis using the SCF Density.

 **********************************************************************

 Orbital symmetries:
       Occupied  (A1) (A1) (A1) (A1) (B2) (A1) (B1) (B2)
       Virtual   (B1) (A1) (B2) (A1) (B1) (A1) (B2) (A1) (A1) (B2)
                 (A1) (B1) (B2) (A1) (B1) (A2) (A1) (B2) (A2) (A1)
                 (A1) (B1) (B2) (A1) (A1) (A1)
 The electronic state is 1-A1.
 Alpha  occ. eigenvalues --  -20.58375 -11.34276  -1.36811  -0.88400  -0.69420
 Alpha  occ. eigenvalues --   -0.62942  -0.50720  -0.44571
 Alpha virt. eigenvalues --    0.12407   0.25003   0.33080   0.36932   0.73995
 Alpha virt. eigenvalues --    0.80086   0.83782   0.90398   1.11178   1.11474
 Alpha virt. eigenvalues --    1.14971   1.27251   1.33394   1.61119   1.77369
 Alpha virt. eigenvalues --    1.79270   2.01072   2.17597   2.22308   2.43351
 Alpha virt. eigenvalues --    2.58797   2.83082   2.94876   3.23427   4.06941
 Alpha virt. eigenvalues --    4.47971
          Condensed to atoms (all electrons):
               1          2          3          4
     1  C    4.615702   0.374647   0.374647   0.504733
     2  H    0.374647   0.570385  -0.062385  -0.048956
     3  H    0.374647  -0.062385   0.570385  -0.048956
     4  O    0.504733  -0.048956  -0.048956   8.056068
 Mulliken charges:
               1
     1  C    0.130271
     2  H    0.166309
     3  H    0.166309
     4  O   -0.462889
 Sum of Mulliken charges =  -0.00000
 Mulliken charges with hydrogens summed into heavy atoms:
               1
     1  C    0.462889
     4  O   -0.462889
 Electronic spatial extent (au):  <R**2>=             61.1271
 Charge=             -0.0000 electrons
 Dipole moment (field-independent basis, Debye):
    X=              0.0000    Y=              0.0000    Z=             -3.0334  Tot=              3.0334
 Quadrupole moment (field-independent basis, Debye-Ang):
   XX=            -11.6002   YY=            -11.2907   ZZ=            -11.7802
   XY=              0.0000   XZ=             -0.0000   YZ=             -0.0000
 Traceless Quadrupole moment (field-independent basis, Debye-Ang):
   XX=             -0.0432   YY=              0.2663   ZZ=             -0.2231
   XY=              0.0000   XZ=             -0.0000   YZ=             -0.0000
 Octapole moment (field-independent basis, Debye-Ang**2):
  XXX=             -0.0000  YYY=             -0.0000  ZZZ=             -0.2217  XYY=              0.0000
  XXY=             -0.0000  XXZ=              0.4924  XZZ=              0.0000  YZZ=             -0.0000
  YYZ=             -0.7484  XYZ=             -0.0000
 Hexadecapole moment (field-independent basis, Debye-Ang**3):
 XXXX=             -9.5550 YYYY=            -16.3120 ZZZZ=            -44.6713 XXXY=             -0.0000
 XXXZ=              0.0000 YYYX=             -0.0000 YYYZ=             -0.0000 ZZZX=              0.0000
 ZZZY=             -0.0000 XXYY=             -4.5951 XXZZ=             -9.0446 YYZZ=             -9.6140
 XXYZ=             -0.0000 YYXZ=             -0.0000 ZZXY=              0.0000
 N-N= 3.059929457712D+01 E-N=-3.294179402525D+02  KE= 1.134156333092D+02
 Symmetry A1   KE= 1.032169650672D+02
 Symmetry A2   KE= 6.082098391337D-34
 Symmetry B1   KE= 3.416488684884D+00
 Symmetry B2   KE= 6.782179557090D+00
 No NMR shielding tensors so no spin-rotation constants.
 Leave Link  601 at Fri Feb 23 12:25:09 2024, MaxMem= 14763950080 cpu:               1.6 elap:               0.2
 (Enter /apps/gaussian/g16-c01-avx2/g16/l701.exe)
 ... and contract with generalized density number  0.
 Compute integral first derivatives.
 Leave Link  701 at Fri Feb 23 12:25:11 2024, MaxMem= 14763950080 cpu:               1.8 elap:               0.1
 (Enter /apps/gaussian/g16-c01-avx2/g16/l702.exe)
 L702 exits ... SP integral derivatives will be done elsewhere.
 Leave Link  702 at Fri Feb 23 12:25:11 2024, MaxMem= 14763950080 cpu:               0.3 elap:               0.0
 (Enter /apps/gaussian/g16-c01-avx2/g16/l703.exe)
 Integral derivatives from FoFJK, PRISM(SPDF).
 Compute integral first derivatives, UseDBF=F ICtDFT=           0.
 Calling FoFJK, ICntrl=      2127 FMM=F ISym2X=1 I1Cent= 0 IOpClX= 0 NMat=1 NMatS=1 NMatT=0.
 FoFJK:  IHMeth= 1 ICntrl=    2127 DoSepK=F KAlg= 0 I1Cent=           0 FoldK=F
 IRaf=         0 NMat=       1 IRICut=       1 DoRegI=T DoRafI=F ISym2E= 1 IDoP0=0 IntGTp=1.
 FoFCou: FMM=F IPFlag=           0 FMFlag=      100000 FMFlg1=         800
         NFxFlg=           0 DoJE=F BraDBF=F KetDBF=F FulRan=T
         wScrn=  0.000000 ICntrl=      2127 IOpCl=  0 I1Cent=           0 NGrid=           0
         NMat0=    1 NMatS0=      1 NMatT0=    0 NMatD0=    1 NMtDS0=    0 NMtDT0=    0
 Petite list used in FoFCou.
 Leave Link  703 at Fri Feb 23 12:25:12 2024, MaxMem= 14763950080 cpu:               2.9 elap:               0.1
 (Enter /apps/gaussian/g16-c01-avx2/g16/l716.exe)
 Dipole        = 2.67993649D-17 6.13183242D-17-1.19342750D+00
 ***** Axes restored to original set *****
 -------------------------------------------------------------------
 Center     Atomic                   Forces (Hartrees/Bohr)
 Number     Number              X              Y              Z
 -------------------------------------------------------------------
      1        6           0.065177815    0.112938733   -0.000000000
      2        1           0.002296833   -0.010463792    0.000000000
      3        1          -0.010209145   -0.003246495    0.000000000
      4        8          -0.057265503   -0.099228446   -0.000000000
 -------------------------------------------------------------------
 Cartesian Forces:  Max     0.112938733 RMS     0.050297830
 Leave Link  716 at Fri Feb 23 12:25:13 2024, MaxMem= 14763950080 cpu:               0.3 elap:               0.0
 (Enter /apps/gaussian/g16-c01-avx2/g16/l103.exe)

 GradGradGradGradGradGradGradGradGradGradGradGradGradGradGradGradGradGrad
 Berny optimization.
 FormGI is forming the generalized inverse of G from B-inverse, IUseBI=4.
 Internal  Forces:  Max     0.114567109 RMS     0.043691769
 Search for a local minimum.
 Step number   1 out of a maximum of   20
 All quantities printed in internal units (Hartrees-Bohrs-Radians)
 RMS Force = .43692D-01 SwitMx=.10000D-02 MixMth= 1
 Mixed Optimization -- RFO/linear search
 Second derivative matrix not updated -- first step.
 The second derivative matrix:
                          R1        R2        R3        A1        A2
           R1           0.37230
           R2           0.00000   0.37230
           R3           0.00000   0.00000   0.80209
           A1           0.00000   0.00000   0.00000   0.16000
           A2           0.00000   0.00000   0.00000   0.00000   0.16000
           A3           0.00000   0.00000   0.00000   0.00000   0.00000
           D1           0.00000   0.00000   0.00000   0.00000   0.00000
                          A3        D1
           A3           0.16000
           D1           0.00000   0.03565
 ITU=  0
     Eigenvalues ---    0.03565   0.16000   0.16000   0.37230   0.37230
     Eigenvalues ---    0.80209
 RFO step:  Lambda=-1.67282559D-02 EMin= 3.56487693D-02
 Linear search not attempted -- first point.
 Iteration  1 RMS(Cart)=  0.04006088 RMS(Int)=  0.00016848
 Iteration  2 RMS(Cart)=  0.00017662 RMS(Int)=  0.00000002
 Iteration  3 RMS(Cart)=  0.00000001 RMS(Int)=  0.00000000
 ITry= 1 IFail=0 DXMaxC= 7.57D-02 DCOld= 1.00D+10 DXMaxT= 3.00D-01 DXLimC= 3.00D+00 Rises=F
 ClnCor:  largest displacement from symmetrization is 3.74D-09 for atom     1.
 Variable       Old X    -DE/DX   Delta X   Delta X   Delta X     New X
                                 (Linear)    (Quad)   (Total)
    R1        2.02201   0.01021   0.00000   0.02624   0.02624   2.04825
    R2        2.02201   0.01021   0.00000   0.02624   0.02624   2.04825
    R3        2.37803  -0.11457   0.00000  -0.13992  -0.13992   2.23811
    A1        2.09440  -0.00437   0.00000  -0.02475  -0.02475   2.06965
    A2        2.09440   0.00219   0.00000   0.01237   0.01237   2.10677
    A3        2.09440   0.00219   0.00000   0.01237   0.01237   2.10677
    D1        3.14159   0.00000   0.00000   0.00000   0.00000   3.14159
         Item               Value     Threshold  Converged?
 Maximum Force            0.114567     0.000450     NO 
 RMS     Force            0.043692     0.000300     NO 
 Maximum Displacement     0.075735     0.001800     NO 
 RMS     Displacement     0.040014     0.001200     NO 
 Predicted change in Energy=-8.547081D-03
 Lowest energy point so far.  Saving SCF results.
 GradGradGradGradGradGradGradGradGradGradGradGradGradGradGradGradGradGrad

 Leave Link  103 at Fri Feb 23 12:25:13 2024, MaxMem= 14763950080 cpu:               0.2 elap:               0.0
 (Enter /apps/gaussian/g16-c01-avx2/g16/l202.exe)
                          Input orientation:                          
 ---------------------------------------------------------------------
 Center     Atomic      Atomic             Coordinates (Angstroms)
 Number     Number       Type             X           Y           Z
 ---------------------------------------------------------------------
      1          6           0       -0.508388   -0.380162   -0.000000
      2          1           0        0.022071   -1.325374   -0.000000
      3          1           0       -1.592190   -0.393771   -0.000000
      4          8           0        0.083605    0.645631    0.000000
 ---------------------------------------------------------------------
                    Distance matrix (angstroms):
                    1          2          3          4
     1  C    0.000000
     2  H    1.083888   0.000000
     3  H    1.083888   1.863793   0.000000
     4  O    1.184359   1.971965   1.971965   0.000000
 Stoichiometry    CH2O
 Framework group  C2V[C2(CO),SGV(H2)]
 Deg. of freedom     3
 Full point group                 C2V     NOp   4
 RotChk:  IX=3 Diff= 7.15D-16
 Largest Abelian subgroup         C2V     NOp   4
 Largest concise Abelian subgroup C2      NOp   2
                         Standard orientation:                         
 ---------------------------------------------------------------------
 Center     Atomic      Atomic             Coordinates (Angstroms)
 Number     Number       Type             X           Y           Z
 ---------------------------------------------------------------------
      1          6           0       -0.000000    0.000000   -0.522990
      2          1           0       -0.000000   -0.931896   -1.076507
      3          1           0        0.000000    0.931896   -1.076507
      4          8           0        0.000000   -0.000000    0.661369
 ---------------------------------------------------------------------
 Rotational constants (GHZ):         288.7132557          40.5508940          35.5568034
 Leave Link  202 at Fri Feb 23 12:25:13 2024, MaxMem= 14763950080 cpu:               0.1 elap:               0.0
 (Enter /apps/gaussian/g16-c01-avx2/g16/l301.exe)
 Standard basis: 6-31G(d) (6D, 7F)
 Ernie: Thresh=  0.10000D-02 Tol=  0.10000D-05 Strict=F.
 There are    18 symmetry adapted cartesian basis functions of A1  symmetry.
 There are     2 symmetry adapted cartesian basis functions of A2  symmetry.
 There are     6 symmetry adapted cartesian basis functions of B1  symmetry.
 There are     8 symmetry adapted cartesian basis functions of B2  symmetry.
 There are    18 symmetry adapted basis functions of A1  symmetry.
 There are     2 symmetry adapted basis functions of A2  symmetry.
 There are     6 symmetry adapted basis functions of B1  symmetry.
 There are     8 symmetry adapted basis functions of B2  symmetry.
    34 basis functions,    64 primitive gaussians,    34 cartesian basis functions
     8 alpha electrons        8 beta electrons
       nuclear repulsion energy        31.8828206150 Hartrees.
 IExCor=    0 DFT=F Ex=HF Corr=None ExCW=0 ScaHFX=  1.000000
 ScaDFX=  1.000000  1.000000  1.000000  1.000000 ScalE2=  1.000000  1.000000
 IRadAn=      5 IRanWt=     -1 IRanGd=            0 ICorTp=0 IEmpDi=  4
 NAtoms=    4 NActive=    4 NUniq=    3 SFac= 1.78D+00 NAtFMM=   60 NAOKFM=F Big=F
 Integral buffers will be    131072 words long.
 Raffenetti 1 integral format.
 Two-electron integral symmetry is turned on.
 Leave Link  301 at Fri Feb 23 12:25:13 2024, MaxMem= 14763950080 cpu:               0.7 elap:               0.0
 (Enter /apps/gaussian/g16-c01-avx2/g16/l302.exe)
 NPDir=0 NMtPBC=     1 NCelOv=     1 NCel=       1 NClECP=     1 NCelD=      1
         NCelK=      1 NCelE2=     1 NClLst=     1 CellRange=     0.0.
 One-electron integrals computed using PRISM.
 One-electron integral symmetry used in STVInt
 NBasis=    34 RedAO= T EigKep=  8.42D-03  NBF=    18     2     6     8
 NBsUse=    34 1.00D-06 EigRej= -1.00D+00 NBFU=    18     2     6     8
 Leave Link  302 at Fri Feb 23 12:25:13 2024, MaxMem= 14763950080 cpu:               1.6 elap:               0.1
 (Enter /apps/gaussian/g16-c01-avx2/g16/l303.exe)
 DipDrv:  MaxL=1.
 Leave Link  303 at Fri Feb 23 12:25:13 2024, MaxMem= 14763950080 cpu:               0.3 elap:               0.0
 (Enter /apps/gaussian/g16-c01-avx2/g16/l401.exe)
 Initial guess from the checkpoint file:  "6-31G_job1.chk"
 B after Tr=     0.000000   -0.000000    0.000000
         Rot=    1.000000   -0.000000    0.000000    0.000000 Ang=   0.00 deg.
 Guess basis will be translated and rotated to current coordinates.
 JPrj=2 DoOrth=T DoCkMO=T.
 Initial guess orbital symmetries:
       Occupied  (A1) (A1) (A1) (A1) (B2) (A1) (B1) (B2)
       Virtual   (B1) (A1) (B2) (A1) (B1) (A1) (B2) (A1) (A1) (B2)
                 (A1) (B1) (B2) (A1) (B1) (A2) (A1) (B2) (A2) (A1)
                 (A1) (B1) (B2) (A1) (A1) (A1)
 The electronic state of the initial guess is 1-A1.
 Generating alternative initial guess.
 ExpMin= 1.61D-01 ExpMax= 5.48D+03 ExpMxC= 8.25D+02 IAcc=3 IRadAn=         5 AccDes= 0.00D+00
 Harris functional with IExCor=  205 and IRadAn=       5 diagonalized for initial guess.
 HarFok:  IExCor=  205 AccDes= 0.00D+00 IRadAn=         5 IDoV= 1 UseB2=F ITyADJ=14
 ICtDFT=  3500011 ScaDFX=  1.000000  1.000000  1.000000  1.000000
 FoFCou: FMM=F IPFlag=           0 FMFlag=      100000 FMFlg1=           0
         NFxFlg=           0 DoJE=T BraDBF=F KetDBF=T FulRan=T
         wScrn=  0.000000 ICntrl=       500 IOpCl=  0 I1Cent=   200000004 NGrid=           0
         NMat0=    1 NMatS0=      1 NMatT0=    0 NMatD0=    1 NMtDS0=    0 NMtDT0=    0
 Petite list used in FoFCou.
 Harris En= -113.941466485252    
 Leave Link  401 at Fri Feb 23 12:25:13 2024, MaxMem= 14763950080 cpu:               5.5 elap:               0.2
 (Enter /apps/gaussian/g16-c01-avx2/g16/l502.exe)
 Keep R1 ints in memory in symmetry-blocked form, NReq=6768298.
 FoFCou: FMM=F IPFlag=           0 FMFlag=           0 FMFlg1=           0
         NFxFlg=           0 DoJE=F BraDBF=F KetDBF=F FulRan=T
         wScrn=  0.000000 ICntrl=       600 IOpCl=  0 I1Cent=           0 NGrid=           0
         NMat0=    1 NMatS0=    595 NMatT0=    0 NMatD0=    1 NMtDS0=    0 NMtDT0=    0
 Petite list used in FoFCou.
 Closed shell SCF:
 Using DIIS extrapolation, IDIIS=  1040.
 NGot= 14763950080 LenX= 14763893126 LenY= 14763891529
 Requested convergence on RMS density matrix=1.00D-08 within 128 cycles.
 Requested convergence on MAX density matrix=1.00D-06.
 Requested convergence on             energy=1.00D-06.
 No special actions if energy rises.

 Cycle   1  Pass 1  IDiag  1:
 E= -113.861881611920    
 DIIS: error= 7.50D-03 at cycle   1 NSaved=   1.
 NSaved= 1 IEnMin= 1 EnMin= -113.861881611920     IErMin= 1 ErrMin= 7.50D-03
 ErrMax= 7.50D-03  0.00D+00 EMaxC= 1.00D-01 BMatC= 3.12D-03 BMatP= 3.12D-03
 IDIUse=3 WtCom= 9.25D-01 WtEn= 7.50D-02
 Coeff-Com:  0.100D+01
 Coeff-En:   0.100D+01
 Coeff:      0.100D+01
 Gap=     0.595 Goal=   None    Shift=    0.000
 GapD=    0.595 DampG=2.000 DampE=1.000 DampFc=2.0000 IDamp=-1.
 RMSDP=1.66D-03 MaxDP=1.32D-02              OVMax= 1.67D-02

 Cycle   2  Pass 1  IDiag  1:
 E= -113.865550024824     Delta-E=       -0.003668412904 Rises=F Damp=F
 DIIS: error= 3.99D-03 at cycle   2 NSaved=   2.
 NSaved= 2 IEnMin= 2 EnMin= -113.865550024824     IErMin= 2 ErrMin= 3.99D-03
 ErrMax= 3.99D-03  0.00D+00 EMaxC= 1.00D-01 BMatC= 3.33D-04 BMatP= 3.12D-03
 IDIUse=3 WtCom= 9.60D-01 WtEn= 3.99D-02
 Coeff-Com:  0.283D-01 0.972D+00
 Coeff-En:   0.000D+00 0.100D+01
 Coeff:      0.272D-01 0.973D+00
 Gap=     0.582 Goal=   None    Shift=    0.000
 RMSDP=6.88D-04 MaxDP=6.47D-03 DE=-3.67D-03 OVMax= 9.72D-03

 Cycle   3  Pass 1  IDiag  1:
 E= -113.865900100089     Delta-E=       -0.000350075265 Rises=F Damp=F
 DIIS: error= 1.66D-03 at cycle   3 NSaved=   3.
 NSaved= 3 IEnMin= 3 EnMin= -113.865900100089     IErMin= 3 ErrMin= 1.66D-03
 ErrMax= 1.66D-03  0.00D+00 EMaxC= 1.00D-01 BMatC= 8.73D-05 BMatP= 3.33D-04
 IDIUse=3 WtCom= 9.83D-01 WtEn= 1.66D-02
 Coeff-Com: -0.996D-01 0.284D+00 0.816D+00
 Coeff-En:   0.000D+00 0.000D+00 0.100D+01
 Coeff:     -0.979D-01 0.279D+00 0.819D+00
 Gap=     0.584 Goal=   None    Shift=    0.000
 RMSDP=2.68D-04 MaxDP=2.76D-03 DE=-3.50D-04 OVMax= 3.33D-03

 Cycle   4  Pass 1  IDiag  1:
 E= -113.865982375089     Delta-E=       -0.000082275000 Rises=F Damp=F
 DIIS: error= 4.80D-04 at cycle   4 NSaved=   4.
 NSaved= 4 IEnMin= 4 EnMin= -113.865982375089     IErMin= 4 ErrMin= 4.80D-04
 ErrMax= 4.80D-04  0.00D+00 EMaxC= 1.00D-01 BMatC= 4.65D-06 BMatP= 8.73D-05
 IDIUse=3 WtCom= 9.95D-01 WtEn= 4.80D-03
 Coeff-Com: -0.232D-01-0.117D-01 0.172D+00 0.863D+00
 Coeff-En:   0.000D+00 0.000D+00 0.000D+00 0.100D+01
 Coeff:     -0.230D-01-0.117D-01 0.171D+00 0.864D+00
 Gap=     0.583 Goal=   None    Shift=    0.000
 RMSDP=8.68D-05 MaxDP=5.68D-04 DE=-8.23D-05 OVMax= 9.21D-04

 Cycle   5  Pass 1  IDiag  1:
 E= -113.865988046798     Delta-E=       -0.000005671709 Rises=F Damp=F
 DIIS: error= 9.01D-05 at cycle   5 NSaved=   5.
 NSaved= 5 IEnMin= 5 EnMin= -113.865988046798     IErMin= 5 ErrMin= 9.01D-05
 ErrMax= 9.01D-05  0.00D+00 EMaxC= 1.00D-01 BMatC= 2.42D-07 BMatP= 4.65D-06
 IDIUse=1 WtCom= 1.00D+00 WtEn= 0.00D+00
 Coeff-Com:  0.109D-01-0.206D-01-0.929D-01-0.742D-01 0.118D+01
 Coeff:      0.109D-01-0.206D-01-0.929D-01-0.742D-01 0.118D+01
 Gap=     0.583 Goal=   None    Shift=    0.000
 RMSDP=4.04D-05 MaxDP=2.47D-04 DE=-5.67D-06 OVMax= 3.69D-04

 Cycle   6  Pass 1  IDiag  1:
 E= -113.865988510016     Delta-E=       -0.000000463217 Rises=F Damp=F
 DIIS: error= 1.38D-05 at cycle   6 NSaved=   6.
 NSaved= 6 IEnMin= 6 EnMin= -113.865988510016     IErMin= 6 ErrMin= 1.38D-05
 ErrMax= 1.38D-05  0.00D+00 EMaxC= 1.00D-01 BMatC= 6.22D-09 BMatP= 2.42D-07
 IDIUse=1 WtCom= 1.00D+00 WtEn= 0.00D+00
 Coeff-Com: -0.126D-02 0.482D-02 0.886D-02-0.181D-01-0.212D+00 0.122D+01
 Coeff:     -0.126D-02 0.482D-02 0.886D-02-0.181D-01-0.212D+00 0.122D+01
 Gap=     0.583 Goal=   None    Shift=    0.000
 RMSDP=6.12D-06 MaxDP=5.21D-05 DE=-4.63D-07 OVMax= 5.28D-05

 Cycle   7  Pass 1  IDiag  1:
 E= -113.865988521921     Delta-E=       -0.000000011905 Rises=F Damp=F
 DIIS: error= 1.87D-06 at cycle   7 NSaved=   7.
 NSaved= 7 IEnMin= 7 EnMin= -113.865988521921     IErMin= 7 ErrMin= 1.87D-06
 ErrMax= 1.87D-06  0.00D+00 EMaxC= 1.00D-01 BMatC= 1.64D-10 BMatP= 6.22D-09
 IDIUse=1 WtCom= 1.00D+00 WtEn= 0.00D+00
 Coeff-Com: -0.931D-04-0.106D-03 0.796D-03 0.691D-02 0.173D-02-0.220D+00
 Coeff-Com:  0.121D+01
 Coeff:     -0.931D-04-0.106D-03 0.796D-03 0.691D-02 0.173D-02-0.220D+00
 Coeff:      0.121D+01
 Gap=     0.583 Goal=   None    Shift=    0.000
 RMSDP=6.05D-07 MaxDP=5.20D-06 DE=-1.19D-08 OVMax= 5.95D-06

 Cycle   8  Pass 1  IDiag  1:
 E= -113.865988522172     Delta-E=       -0.000000000251 Rises=F Damp=F
 DIIS: error= 3.61D-07 at cycle   8 NSaved=   8.
 NSaved= 8 IEnMin= 8 EnMin= -113.865988522172     IErMin= 8 ErrMin= 3.61D-07
 ErrMax= 3.61D-07  0.00D+00 EMaxC= 1.00D-01 BMatC= 1.82D-12 BMatP= 1.64D-10
 IDIUse=1 WtCom= 1.00D+00 WtEn= 0.00D+00
 Coeff-Com:  0.411D-04-0.603D-04-0.313D-03-0.121D-02 0.265D-02 0.333D-01
 Coeff-Com: -0.276D+00 0.124D+01
 Coeff:      0.411D-04-0.603D-04-0.313D-03-0.121D-02 0.265D-02 0.333D-01
 Coeff:     -0.276D+00 0.124D+01
 Gap=     0.583 Goal=   None    Shift=    0.000
 RMSDP=7.48D-08 MaxDP=7.53D-07 DE=-2.51D-10 OVMax= 7.62D-07

 Cycle   9  Pass 1  IDiag  1:
 E= -113.865988522176     Delta-E=       -0.000000000004 Rises=F Damp=F
 DIIS: error= 4.49D-08 at cycle   9 NSaved=   9.
 NSaved= 9 IEnMin= 9 EnMin= -113.865988522176     IErMin= 9 ErrMin= 4.49D-08
 ErrMax= 4.49D-08  0.00D+00 EMaxC= 1.00D-01 BMatC= 3.85D-14 BMatP= 1.82D-12
 IDIUse=1 WtCom= 1.00D+00 WtEn= 0.00D+00
 Coeff-Com: -0.926D-05 0.183D-04 0.713D-04 0.159D-03-0.915D-03-0.224D-02
 Coeff-Com:  0.364D-01-0.285D+00 0.125D+01
 Coeff:     -0.926D-05 0.183D-04 0.713D-04 0.159D-03-0.915D-03-0.224D-02
 Coeff:      0.364D-01-0.285D+00 0.125D+01
 Gap=     0.583 Goal=   None    Shift=    0.000
 RMSDP=1.28D-08 MaxDP=1.07D-07 DE=-3.75D-12 OVMax= 1.22D-07

 Cycle  10  Pass 1  IDiag  1:
 E= -113.865988522176     Delta-E=        0.000000000000 Rises=F Damp=F
 DIIS: error= 3.34D-09 at cycle  10 NSaved=  10.
 NSaved=10 IEnMin= 9 EnMin= -113.865988522176     IErMin=10 ErrMin= 3.34D-09
 ErrMax= 3.34D-09  0.00D+00 EMaxC= 1.00D-01 BMatC= 3.45D-16 BMatP= 3.85D-14
 IDIUse=1 WtCom= 1.00D+00 WtEn= 0.00D+00
 Coeff-Com:  0.147D-05-0.323D-05-0.118D-04-0.151D-04 0.157D-03 0.249D-04
 Coeff-Com: -0.398D-02 0.408D-01-0.235D+00 0.120D+01
 Coeff:      0.147D-05-0.323D-05-0.118D-04-0.151D-04 0.157D-03 0.249D-04
 Coeff:     -0.398D-02 0.408D-01-0.235D+00 0.120D+01
 Gap=     0.583 Goal=   None    Shift=    0.000
 RMSDP=1.07D-09 MaxDP=9.40D-09 DE= 2.84D-14 OVMax= 1.20D-08

 SCF Done:  E(RHF) =  -113.865988522     A.U. after   10 cycles
            NFock= 10  Conv=0.11D-08     -V/T= 2.0018
 KE= 1.136647569842D+02 PE=-3.321105180808D+02 EE= 7.269695195933D+01
 Leave Link  502 at Fri Feb 23 12:25:13 2024, MaxMem= 14763950080 cpu:               2.3 elap:               0.1
 (Enter /apps/gaussian/g16-c01-avx2/g16/l701.exe)
 ... and contract with generalized density number  0.
 Compute integral first derivatives.
 Leave Link  701 at Fri Feb 23 12:25:14 2024, MaxMem= 14763950080 cpu:               1.9 elap:               0.1
 (Enter /apps/gaussian/g16-c01-avx2/g16/l702.exe)
 L702 exits ... SP integral derivatives will be done elsewhere.
 Leave Link  702 at Fri Feb 23 12:25:14 2024, MaxMem= 14763950080 cpu:               0.3 elap:               0.0
 (Enter /apps/gaussian/g16-c01-avx2/g16/l703.exe)
 Integral derivatives from FoFJK, PRISM(SPDF).
 Compute integral first derivatives, UseDBF=F ICtDFT=           0.
 Calling FoFJK, ICntrl=      2127 FMM=F ISym2X=1 I1Cent= 0 IOpClX= 0 NMat=1 NMatS=1 NMatT=0.
 FoFJK:  IHMeth= 1 ICntrl=    2127 DoSepK=F KAlg= 0 I1Cent=           0 FoldK=F
 IRaf=         0 NMat=       1 IRICut=       1 DoRegI=T DoRafI=F ISym2E= 1 IDoP0=0 IntGTp=1.
 FoFCou: FMM=F IPFlag=           0 FMFlag=      100000 FMFlg1=         800
         NFxFlg=           0 DoJE=F BraDBF=F KetDBF=F FulRan=T
         wScrn=  0.000000 ICntrl=      2127 IOpCl=  0 I1Cent=           0 NGrid=           0
         NMat0=    1 NMatS0=      1 NMatT0=    0 NMatD0=    1 NMtDS0=    0 NMtDT0=    0
 Petite list used in FoFCou.
 Leave Link  703 at Fri Feb 23 12:25:14 2024, MaxMem= 14763950080 cpu:               2.9 elap:               0.1
 (Enter /apps/gaussian/g16-c01-avx2/g16/l716.exe)
 Dipole        = 2.20793325D-17-6.39826082D-16-1.05104348D+00
 ***** Axes restored to original set *****
 -------------------------------------------------------------------
 Center     Atomic                   Forces (Hartrees/Bohr)
 Number     Number              X              Y              Z
 -------------------------------------------------------------------
      1        6           0.004741695    0.008216308   -0.000000000
      2        1          -0.002249068   -0.006746334    0.000000000
      3        1          -0.004716026   -0.005322634    0.000000000
      4        8           0.002223399    0.003852659   -0.000000000
 -------------------------------------------------------------------
 Cartesian Forces:  Max     0.008216308 RMS     0.004192459
 Leave Link  716 at Fri Feb 23 12:25:14 2024, MaxMem= 14763950080 cpu:               0.3 elap:               0.0
 (Enter /apps/gaussian/g16-c01-avx2/g16/l103.exe)

 GradGradGradGradGradGradGradGradGradGradGradGradGradGradGradGradGradGrad
 Berny optimization.
 Using GEDIIS/GDIIS optimizer.
 FormGI is forming the generalized inverse of G from B-inverse, IUseBI=4.
 Internal  Forces:  Max     0.007186630 RMS     0.004519834
 Search for a local minimum.
 Step number   2 out of a maximum of   20
 All quantities printed in internal units (Hartrees-Bohrs-Radians)
 RMS Force = .45198D-02 SwitMx=.10000D-02 MixMth= 1
 Mixed Optimization -- RFO/linear search
 Update second derivatives using D2CorX and points    1    2
 DE= -8.97D-03 DEPred=-8.55D-03 R= 1.05D+00
 TightC=F SS=  1.41D+00  RLast= 1.48D-01 DXNew= 5.0454D-01 4.4369D-01
 Trust test= 1.05D+00 RLast= 1.48D-01 DXMaxT set to 4.44D-01
 The second derivative matrix:
                          R1        R2        R3        A1        A2
           R1           0.36822
           R2          -0.00408   0.36822
           R3           0.02864   0.02864   0.87384
           A1           0.00327   0.00327  -0.04705   0.15951
           A2          -0.00164  -0.00164   0.02352   0.00024   0.15988
           A3          -0.00164  -0.00164   0.02352   0.00024  -0.00012
           D1           0.00000   0.00000  -0.00000   0.00000  -0.00000
                          A3        D1
           A3           0.15988
           D1          -0.00000   0.03565
 ITU=  1  0
 Use linear search instead of GDIIS.
     Eigenvalues ---    0.03565   0.15427   0.16000   0.36143   0.37230
     Eigenvalues ---    0.88153
 RFO step:  Lambda=-6.25989565D-04 EMin= 3.56487693D-02
 Quartic linear search produced a step of -0.00501.
 Iteration  1 RMS(Cart)=  0.01899636 RMS(Int)=  0.00031674
 Iteration  2 RMS(Cart)=  0.00033018 RMS(Int)=  0.00000004
 Iteration  3 RMS(Cart)=  0.00000003 RMS(Int)=  0.00000001
 ITry= 1 IFail=0 DXMaxC= 2.68D-02 DCOld= 1.00D+10 DXMaxT= 4.44D-01 DXLimC= 3.00D+00 Rises=F
 ClnCor:  largest displacement from symmetrization is 4.42D-09 for atom     1.
 Variable       Old X    -DE/DX   Delta X   Delta X   Delta X     New X
                                 (Linear)    (Quad)   (Total)
    R1        2.04825   0.00478  -0.00013   0.01389   0.01376   2.06201
    R2        2.04825   0.00478  -0.00013   0.01389   0.01376   2.06201
    R3        2.23811   0.00445   0.00070  -0.00034   0.00036   2.23847
    A1        2.06965  -0.00719   0.00012  -0.04567  -0.04555   2.02410
    A2        2.10677   0.00359  -0.00006   0.02284   0.02277   2.12954
    A3        2.10677   0.00359  -0.00006   0.02284   0.02277   2.12954
    D1        3.14159   0.00000   0.00000   0.00000   0.00000   3.14159
         Item               Value     Threshold  Converged?
 Maximum Force            0.007187     0.000450     NO 
 RMS     Force            0.004520     0.000300     NO 
 Maximum Displacement     0.026787     0.001800     NO 
 RMS     Displacement     0.019108     0.001200     NO 
 Predicted change in Energy=-3.121152D-04
 Lowest energy point so far.  Saving SCF results.
 GradGradGradGradGradGradGradGradGradGradGradGradGradGradGradGradGradGrad

 Leave Link  103 at Fri Feb 23 12:25:14 2024, MaxMem= 14763950080 cpu:               0.2 elap:               0.0
 (Enter /apps/gaussian/g16-c01-avx2/g16/l202.exe)
                          Input orientation:                          
 ---------------------------------------------------------------------
 Center     Atomic      Atomic             Coordinates (Angstroms)
 Number     Number       Type             X           Y           Z
 ---------------------------------------------------------------------
      1          6           0       -0.502179   -0.369404    0.000000
      2          1           0        0.010037   -1.332880    0.000000
      3          1           0       -1.592669   -0.407946   -0.000000
      4          8           0        0.089909    0.656554   -0.000000
 ---------------------------------------------------------------------
                    Distance matrix (angstroms):
                    1          2          3          4
     1  C    0.000000
     2  H    1.091171   0.000000
     3  H    1.091171   1.850451   0.000000
     4  O    1.184550   1.991037   1.991037   0.000000
 Stoichiometry    CH2O
 Framework group  C2V[C2(CO),SGV(H2)]
 Deg. of freedom     3
 Full point group                 C2V     NOp   4
 RotChk:  IX=3 Diff= 2.27D-16
 Largest Abelian subgroup         C2V     NOp   4
 Largest concise Abelian subgroup C2      NOp   2
                         Standard orientation:                         
 ---------------------------------------------------------------------
 Center     Atomic      Atomic             Coordinates (Angstroms)
 Number     Number       Type             X           Y           Z
 ---------------------------------------------------------------------
      1          6           0       -0.000000    0.000000   -0.519968
      2          1           0       -0.000000   -0.925226   -1.098423
      3          1           0        0.000000    0.925226   -1.098423
      4          8           0        0.000000   -0.000000    0.664582
 ---------------------------------------------------------------------
 Rotational constants (GHZ):         292.8914247          40.1636624          35.3202601
 Leave Link  202 at Fri Feb 23 12:25:14 2024, MaxMem= 14763950080 cpu:               0.1 elap:               0.0
 (Enter /apps/gaussian/g16-c01-avx2/g16/l301.exe)
 Standard basis: 6-31G(d) (6D, 7F)
 Ernie: Thresh=  0.10000D-02 Tol=  0.10000D-05 Strict=F.
 There are    18 symmetry adapted cartesian basis functions of A1  symmetry.
 There are     2 symmetry adapted cartesian basis functions of A2  symmetry.
 There are     6 symmetry adapted cartesian basis functions of B1  symmetry.
 There are     8 symmetry adapted cartesian basis functions of B2  symmetry.
 There are    18 symmetry adapted basis functions of A1  symmetry.
 There are     2 symmetry adapted basis functions of A2  symmetry.
 There are     6 symmetry adapted basis functions of B1  symmetry.
 There are     8 symmetry adapted basis functions of B2  symmetry.
    34 basis functions,    64 primitive gaussians,    34 cartesian basis functions
     8 alpha electrons        8 beta electrons
       nuclear repulsion energy        31.8011734796 Hartrees.
 IExCor=    0 DFT=F Ex=HF Corr=None ExCW=0 ScaHFX=  1.000000
 ScaDFX=  1.000000  1.000000  1.000000  1.000000 ScalE2=  1.000000  1.000000
 IRadAn=      5 IRanWt=     -1 IRanGd=            0 ICorTp=0 IEmpDi=  4
 NAtoms=    4 NActive=    4 NUniq=    3 SFac= 1.78D+00 NAtFMM=   60 NAOKFM=F Big=F
 Integral buffers will be    131072 words long.
 Raffenetti 1 integral format.
 Two-electron integral symmetry is turned on.
 Leave Link  301 at Fri Feb 23 12:25:14 2024, MaxMem= 14763950080 cpu:               0.7 elap:               0.0
 (Enter /apps/gaussian/g16-c01-avx2/g16/l302.exe)
 NPDir=0 NMtPBC=     1 NCelOv=     1 NCel=       1 NClECP=     1 NCelD=      1
         NCelK=      1 NCelE2=     1 NClLst=     1 CellRange=     0.0.
 One-electron integrals computed using PRISM.
 One-electron integral symmetry used in STVInt
 NBasis=    34 RedAO= T EigKep=  8.53D-03  NBF=    18     2     6     8
 NBsUse=    34 1.00D-06 EigRej= -1.00D+00 NBFU=    18     2     6     8
 Leave Link  302 at Fri Feb 23 12:25:14 2024, MaxMem= 14763950080 cpu:               1.6 elap:               0.1
 (Enter /apps/gaussian/g16-c01-avx2/g16/l303.exe)
 DipDrv:  MaxL=1.
 Leave Link  303 at Fri Feb 23 12:25:14 2024, MaxMem= 14763950080 cpu:               0.3 elap:               0.0
 (Enter /apps/gaussian/g16-c01-avx2/g16/l401.exe)
 Initial guess from the checkpoint file:  "6-31G_job1.chk"
 B after Tr=    -0.000000    0.000000    0.000000
         Rot=    1.000000    0.000000   -0.000000    0.000000 Ang=   0.00 deg.
 Guess basis will be translated and rotated to current coordinates.
 JPrj=2 DoOrth=T DoCkMO=T.
 Initial guess orbital symmetries:
       Occupied  (A1) (A1) (A1) (A1) (B2) (A1) (B1) (B2)
       Virtual   (B1) (A1) (B2) (A1) (B1) (A1) (B2) (A1) (A1) (B2)
                 (A1) (B1) (B2) (A1) (A2) (B1) (A1) (B2) (A2) (A1)
                 (A1) (B1) (B2) (A1) (A1) (A1)
 The electronic state of the initial guess is 1-A1.
 Generating alternative initial guess.
 ExpMin= 1.61D-01 ExpMax= 5.48D+03 ExpMxC= 8.25D+02 IAcc=3 IRadAn=         5 AccDes= 0.00D+00
 Harris functional with IExCor=  205 and IRadAn=       5 diagonalized for initial guess.
 HarFok:  IExCor=  205 AccDes= 0.00D+00 IRadAn=         5 IDoV= 1 UseB2=F ITyADJ=14
 ICtDFT=  3500011 ScaDFX=  1.000000  1.000000  1.000000  1.000000
 FoFCou: FMM=F IPFlag=           0 FMFlag=      100000 FMFlg1=           0
         NFxFlg=           0 DoJE=T BraDBF=F KetDBF=T FulRan=T
         wScrn=  0.000000 ICntrl=       500 IOpCl=  0 I1Cent=   200000004 NGrid=           0
         NMat0=    1 NMatS0=      1 NMatT0=    0 NMatD0=    1 NMtDS0=    0 NMtDT0=    0
 Petite list used in FoFCou.
 Harris En= -113.941312060199    
 Leave Link  401 at Fri Feb 23 12:25:14 2024, MaxMem= 14763950080 cpu:               3.1 elap:               0.1
 (Enter /apps/gaussian/g16-c01-avx2/g16/l502.exe)
 Keep R1 ints in memory in symmetry-blocked form, NReq=6768298.
 FoFCou: FMM=F IPFlag=           0 FMFlag=           0 FMFlg1=           0
         NFxFlg=           0 DoJE=F BraDBF=F KetDBF=F FulRan=T
         wScrn=  0.000000 ICntrl=       600 IOpCl=  0 I1Cent=           0 NGrid=           0
         NMat0=    1 NMatS0=    595 NMatT0=    0 NMatD0=    1 NMtDS0=    0 NMtDT0=    0
 Petite list used in FoFCou.
 Closed shell SCF:
 Using DIIS extrapolation, IDIIS=  1040.
 NGot= 14763950080 LenX= 14763893126 LenY= 14763891529
 Requested convergence on RMS density matrix=1.00D-08 within 128 cycles.
 Requested convergence on MAX density matrix=1.00D-06.
 Requested convergence on             energy=1.00D-06.
 No special actions if energy rises.

 Cycle   1  Pass 1  IDiag  1:
 E= -113.866253498062    
 DIIS: error= 1.22D-03 at cycle   1 NSaved=   1.
 NSaved= 1 IEnMin= 1 EnMin= -113.866253498062     IErMin= 1 ErrMin= 1.22D-03
 ErrMax= 1.22D-03  0.00D+00 EMaxC= 1.00D-01 BMatC= 4.99D-05 BMatP= 4.99D-05
 IDIUse=3 WtCom= 9.88D-01 WtEn= 1.22D-02
 Coeff-Com:  0.100D+01
 Coeff-En:   0.100D+01
 Coeff:      0.100D+01
 Gap=     0.582 Goal=   None    Shift=    0.000
 GapD=    0.582 DampG=2.000 DampE=1.000 DampFc=2.0000 IDamp=-1.
 RMSDP=2.12D-04 MaxDP=2.83D-03              OVMax= 3.06D-03

 Cycle   2  Pass 1  IDiag  1:
 E= -113.866320227627     Delta-E=       -0.000066729564 Rises=F Damp=F
 DIIS: error= 4.86D-04 at cycle   2 NSaved=   2.
 NSaved= 2 IEnMin= 2 EnMin= -113.866320227627     IErMin= 2 ErrMin= 4.86D-04
 ErrMax= 4.86D-04  0.00D+00 EMaxC= 1.00D-01 BMatC= 6.59D-06 BMatP= 4.99D-05
 IDIUse=3 WtCom= 9.95D-01 WtEn= 4.86D-03
 Coeff-Com:  0.645D-01 0.935D+00
 Coeff-En:   0.000D+00 0.100D+01
 Coeff:      0.642D-01 0.936D+00
 Gap=     0.581 Goal=   None    Shift=    0.000
 RMSDP=7.52D-05 MaxDP=8.13D-04 DE=-6.67D-05 OVMax= 8.90D-04

 Cycle   3  Pass 1  IDiag  1:
 E= -113.866326443818     Delta-E=       -0.000006216191 Rises=F Damp=F
 DIIS: error= 2.84D-04 at cycle   3 NSaved=   3.
 NSaved= 3 IEnMin= 3 EnMin= -113.866326443818     IErMin= 3 ErrMin= 2.84D-04
 ErrMax= 2.84D-04  0.00D+00 EMaxC= 1.00D-01 BMatC= 1.42D-06 BMatP= 6.59D-06
 IDIUse=3 WtCom= 9.97D-01 WtEn= 2.84D-03
 Coeff-Com: -0.929D-01 0.253D+00 0.840D+00
 Coeff-En:   0.000D+00 0.000D+00 0.100D+01
 Coeff:     -0.926D-01 0.252D+00 0.841D+00
 Gap=     0.582 Goal=   None    Shift=    0.000
 RMSDP=3.19D-05 MaxDP=3.96D-04 DE=-6.22D-06 OVMax= 6.41D-04

 Cycle   4  Pass 1  IDiag  1:
 E= -113.866328110976     Delta-E=       -0.000001667158 Rises=F Damp=F
 DIIS: error= 6.24D-05 at cycle   4 NSaved=   4.
 NSaved= 4 IEnMin= 4 EnMin= -113.866328110976     IErMin= 4 ErrMin= 6.24D-05
 ErrMax= 6.24D-05  0.00D+00 EMaxC= 1.00D-01 BMatC= 1.41D-07 BMatP= 1.42D-06
 IDIUse=1 WtCom= 1.00D+00 WtEn= 0.00D+00
 Coeff-Com: -0.115D-01-0.578D-01 0.165D+00 0.904D+00
 Coeff:     -0.115D-01-0.578D-01 0.165D+00 0.904D+00
 Gap=     0.581 Goal=   None    Shift=    0.000
 RMSDP=1.31D-05 MaxDP=9.53D-05 DE=-1.67D-06 OVMax= 1.78D-04

 Cycle   5  Pass 1  IDiag  1:
 E= -113.866328279518     Delta-E=       -0.000000168542 Rises=F Damp=F
 DIIS: error= 1.96D-05 at cycle   5 NSaved=   5.
 NSaved= 5 IEnMin= 5 EnMin= -113.866328279518     IErMin= 5 ErrMin= 1.96D-05
 ErrMax= 1.96D-05  0.00D+00 EMaxC= 1.00D-01 BMatC= 1.27D-08 BMatP= 1.41D-07
 IDIUse=1 WtCom= 1.00D+00 WtEn= 0.00D+00
 Coeff-Com:  0.113D-01-0.401D-01-0.667D-01-0.104D+00 0.120D+01
 Coeff:      0.113D-01-0.401D-01-0.667D-01-0.104D+00 0.120D+01
 Gap=     0.581 Goal=   None    Shift=    0.000
 RMSDP=6.62D-06 MaxDP=5.76D-05 DE=-1.69D-07 OVMax= 1.04D-04

 Cycle   6  Pass 1  IDiag  1:
 E= -113.866328311411     Delta-E=       -0.000000031892 Rises=F Damp=F
 DIIS: error= 7.92D-06 at cycle   6 NSaved=   6.
 NSaved= 6 IEnMin= 6 EnMin= -113.866328311411     IErMin= 6 ErrMin= 7.92D-06
 ErrMax= 7.92D-06  0.00D+00 EMaxC= 1.00D-01 BMatC= 1.58D-09 BMatP= 1.27D-08
 IDIUse=1 WtCom= 1.00D+00 WtEn= 0.00D+00
 Coeff-Com: -0.502D-02 0.213D-01 0.389D-01-0.491D-01-0.619D+00 0.161D+01
 Coeff:     -0.502D-02 0.213D-01 0.389D-01-0.491D-01-0.619D+00 0.161D+01
 Gap=     0.581 Goal=   None    Shift=    0.000
 RMSDP=3.07D-06 MaxDP=2.81D-05 DE=-3.19D-08 OVMax= 5.45D-05

 Cycle   7  Pass 1  IDiag  1:
 E= -113.866328316212     Delta-E=       -0.000000004802 Rises=F Damp=F
 DIIS: error= 1.62D-06 at cycle   7 NSaved=   7.
 NSaved= 7 IEnMin= 7 EnMin= -113.866328316212     IErMin= 7 ErrMin= 1.62D-06
 ErrMax= 1.62D-06  0.00D+00 EMaxC= 1.00D-01 BMatC= 5.70D-11 BMatP= 1.58D-09
 IDIUse=1 WtCom= 1.00D+00 WtEn= 0.00D+00
 Coeff-Com:  0.475D-03-0.338D-02-0.241D-02 0.139D-01 0.860D-01-0.437D+00
 Coeff-Com:  0.134D+01
 Coeff:      0.475D-03-0.338D-02-0.241D-02 0.139D-01 0.860D-01-0.437D+00
 Coeff:      0.134D+01
 Gap=     0.581 Goal=   None    Shift=    0.000
 RMSDP=5.28D-07 MaxDP=4.81D-06 DE=-4.80D-09 OVMax= 9.37D-06

 Cycle   8  Pass 1  IDiag  1:
 E= -113.866328316358     Delta-E=       -0.000000000145 Rises=F Damp=F
 DIIS: error= 7.53D-08 at cycle   8 NSaved=   8.
 NSaved= 8 IEnMin= 8 EnMin= -113.866328316358     IErMin= 8 ErrMin= 7.53D-08
 ErrMax= 7.53D-08  0.00D+00 EMaxC= 1.00D-01 BMatC= 2.46D-13 BMatP= 5.70D-11
 IDIUse=1 WtCom= 1.00D+00 WtEn= 0.00D+00
 Coeff-Com: -0.468D-04 0.464D-03 0.232D-04-0.209D-02-0.912D-02 0.667D-01
 Coeff-Com: -0.265D+00 0.121D+01
 Coeff:     -0.468D-04 0.464D-03 0.232D-04-0.209D-02-0.912D-02 0.667D-01
 Coeff:     -0.265D+00 0.121D+01
 Gap=     0.581 Goal=   None    Shift=    0.000
 RMSDP=4.05D-08 MaxDP=3.12D-07 DE=-1.45D-10 OVMax= 2.79D-07

 Cycle   9  Pass 1  IDiag  1:
 E= -113.866328316358     Delta-E=       -0.000000000000 Rises=F Damp=F
 DIIS: error= 1.28D-08 at cycle   9 NSaved=   9.
 NSaved= 9 IEnMin= 9 EnMin= -113.866328316358     IErMin= 9 ErrMin= 1.28D-08
 ErrMax= 1.28D-08  0.00D+00 EMaxC= 1.00D-01 BMatC= 4.14D-15 BMatP= 2.46D-13
 IDIUse=1 WtCom= 1.00D+00 WtEn= 0.00D+00
 Coeff-Com: -0.788D-06-0.243D-04 0.480D-04 0.104D-03 0.142D-03-0.412D-02
 Coeff-Com:  0.217D-01-0.182D+00 0.116D+01
 Coeff:     -0.788D-06-0.243D-04 0.480D-04 0.104D-03 0.142D-03-0.412D-02
 Coeff:      0.217D-01-0.182D+00 0.116D+01
 Gap=     0.581 Goal=   None    Shift=    0.000
 RMSDP=4.48D-09 MaxDP=3.20D-08 DE=-3.69D-13 OVMax= 4.06D-08

 SCF Done:  E(RHF) =  -113.866328316     A.U. after    9 cycles
            NFock=  9  Conv=0.45D-08     -V/T= 2.0020
 KE= 1.136363550470D+02 PE=-3.319105561613D+02 EE= 7.260669931833D+01
 Leave Link  502 at Fri Feb 23 12:25:14 2024, MaxMem= 14763950080 cpu:               2.4 elap:               0.1
 (Enter /apps/gaussian/g16-c01-avx2/g16/l701.exe)
 ... and contract with generalized density number  0.
 Compute integral first derivatives.
 Leave Link  701 at Fri Feb 23 12:25:14 2024, MaxMem= 14763950080 cpu:               1.8 elap:               0.1
 (Enter /apps/gaussian/g16-c01-avx2/g16/l702.exe)
 L702 exits ... SP integral derivatives will be done elsewhere.
 Leave Link  702 at Fri Feb 23 12:25:14 2024, MaxMem= 14763950080 cpu:               0.3 elap:               0.0
 (Enter /apps/gaussian/g16-c01-avx2/g16/l703.exe)
 Integral derivatives from FoFJK, PRISM(SPDF).
 Compute integral first derivatives, UseDBF=F ICtDFT=           0.
 Calling FoFJK, ICntrl=      2127 FMM=F ISym2X=1 I1Cent= 0 IOpClX= 0 NMat=1 NMatS=1 NMatT=0.
 FoFJK:  IHMeth= 1 ICntrl=    2127 DoSepK=F KAlg= 0 I1Cent=           0 FoldK=F
 IRaf=         0 NMat=       1 IRICut=       1 DoRegI=T DoRafI=F ISym2E= 1 IDoP0=0 IntGTp=1.
 FoFCou: FMM=F IPFlag=           0 FMFlag=      100000 FMFlg1=         800
         NFxFlg=           0 DoJE=F BraDBF=F KetDBF=F FulRan=T
         wScrn=  0.000000 ICntrl=      2127 IOpCl=  0 I1Cent=           0 NGrid=           0
         NMat0=    1 NMatS0=      1 NMatT0=    0 NMatD0=    1 NMtDS0=    0 NMtDT0=    0
 Petite list used in FoFCou.
 Leave Link  703 at Fri Feb 23 12:25:14 2024, MaxMem= 14763950080 cpu:               2.8 elap:               0.1
 (Enter /apps/gaussian/g16-c01-avx2/g16/l716.exe)
 Dipole        = 2.15494097D-17-5.98782167D-16-1.04948930D+00
 ***** Axes restored to original set *****
 -------------------------------------------------------------------
 Center     Atomic                   Forces (Hartrees/Bohr)
 Number     Number              X              Y              Z
 -------------------------------------------------------------------
      1        6           0.000578379    0.001002203   -0.000000000
      2        1          -0.000357350   -0.000445492    0.000000000
      3        1          -0.000206939   -0.000532296    0.000000000
      4        8          -0.000014090   -0.000024415   -0.000000000
 -------------------------------------------------------------------
 Cartesian Forces:  Max     0.001002203 RMS     0.000407436
 Leave Link  716 at Fri Feb 23 12:25:14 2024, MaxMem= 14763950080 cpu:               0.3 elap:               0.0
 (Enter /apps/gaussian/g16-c01-avx2/g16/l103.exe)

 GradGradGradGradGradGradGradGradGradGradGradGradGradGradGradGradGradGrad
 Berny optimization.
 Using GEDIIS/GDIIS optimizer.
 FormGI is forming the generalized inverse of G from B-inverse, IUseBI=4.
 Internal  Forces:  Max     0.000721229 RMS     0.000355136
 Search for a local minimum.
 Step number   3 out of a maximum of   20
 All quantities printed in internal units (Hartrees-Bohrs-Radians)
 RMS Force = .35514D-03 SwitMx=.10000D-02 MixMth= 2
 Mixed Optimization -- En-DIIS/RFO-DIIS
 Update second derivatives using D2CorX and points    1    2    3
 DE= -3.40D-04 DEPred=-3.12D-04 R= 1.09D+00
 TightC=F SS=  1.41D+00  RLast= 5.91D-02 DXNew= 7.4619D-01 1.7725D-01
 Trust test= 1.09D+00 RLast= 5.91D-02 DXMaxT set to 4.44D-01
 The second derivative matrix:
                          R1        R2        R3        A1        A2
           R1           0.36799
           R2          -0.00431   0.36799
           R3           0.02996   0.02996   0.87703
           A1           0.00672   0.00672  -0.04881   0.15042
           A2          -0.00336  -0.00336   0.02441   0.00479   0.15760
           A3          -0.00336  -0.00336   0.02441   0.00479  -0.00240
           D1           0.00000   0.00000  -0.00000  -0.00000   0.00000
                          A3        D1
           A3           0.15760
           D1           0.00000   0.03565
 ITU=  1  1  0
 Use linear search instead of GDIIS.
     Eigenvalues ---    0.03565   0.13975   0.16000   0.36143   0.37230
     Eigenvalues ---    0.88516
 RFO step:  Lambda=-5.96959684D-07 EMin= 3.56487693D-02
 Quartic linear search produced a step of  0.09760.
 Iteration  1 RMS(Cart)=  0.00212899 RMS(Int)=  0.00000385
 Iteration  2 RMS(Cart)=  0.00000383 RMS(Int)=  0.00000000
 Iteration  3 RMS(Cart)=  0.00000000 RMS(Int)=  0.00000000
 ITry= 1 IFail=0 DXMaxC= 3.13D-03 DCOld= 1.00D+10 DXMaxT= 4.44D-01 DXLimC= 3.00D+00 Rises=F
 ClnCor:  largest displacement from symmetrization is 1.87D-14 for atom     1.
 Variable       Old X    -DE/DX   Delta X   Delta X   Delta X     New X
                                 (Linear)    (Quad)   (Total)
    R1        2.06201   0.00023   0.00134  -0.00054   0.00081   2.06282
    R2        2.06201   0.00023   0.00134  -0.00054   0.00081   2.06282
    R3        2.23847  -0.00003   0.00004  -0.00056  -0.00052   2.23795
    A1        2.02410  -0.00072  -0.00445  -0.00076  -0.00521   2.01889
    A2        2.12954   0.00036   0.00222   0.00038   0.00260   2.13215
    A3        2.12954   0.00036   0.00222   0.00038   0.00260   2.13215
    D1        3.14159   0.00000   0.00000   0.00000   0.00000   3.14159
         Item               Value     Threshold  Converged?
 Maximum Force            0.000721     0.000450     NO 
 RMS     Force            0.000355     0.000300     NO 
 Maximum Displacement     0.003126     0.001800     NO 
 RMS     Displacement     0.002130     0.001200     NO 
 Predicted change in Energy=-3.003396D-06
 Lowest energy point so far.  Saving SCF results.
 GradGradGradGradGradGradGradGradGradGradGradGradGradGradGradGradGradGrad

 Leave Link  103 at Fri Feb 23 12:25:14 2024, MaxMem= 14763950080 cpu:               0.2 elap:               0.0
 (Enter /apps/gaussian/g16-c01-avx2/g16/l202.exe)
                          Input orientation:                          
 ---------------------------------------------------------------------
 Center     Atomic      Atomic             Coordinates (Angstroms)
 Number     Number       Type             X           Y           Z
 ---------------------------------------------------------------------
      1          6           0       -0.501487   -0.368203    0.000000
      2          1           0        0.008420   -1.333388    0.000000
      3          1           0       -1.592300   -0.409600   -0.000000
      4          8           0        0.090464    0.657515   -0.000000
 ---------------------------------------------------------------------
                    Distance matrix (angstroms):
                    1          2          3          4
     1  C    0.000000
     2  H    1.091598   0.000000
     3  H    1.091598   1.848158   0.000000
     4  O    1.184274   1.992593   1.992593   0.000000
 Stoichiometry    CH2O
 Framework group  C2V[C2(CO),SGV(H2)]
 Deg. of freedom     3
 Full point group                 C2V     NOp   4
 RotChk:  IX=3 Diff= 2.27D-16
 Largest Abelian subgroup         C2V     NOp   4
 Largest concise Abelian subgroup C2      NOp   2
                         Standard orientation:                         
 ---------------------------------------------------------------------
 Center     Atomic      Atomic             Coordinates (Angstroms)
 Number     Number       Type             X           Y           Z
 ---------------------------------------------------------------------
      1          6           0       -0.000000    0.000000   -0.519501
      2          1           0       -0.000000   -0.924079   -1.100590
      3          1           0        0.000000    0.924079   -1.100590
      4          8           0        0.000000   -0.000000    0.664773
 ---------------------------------------------------------------------
 Rotational constants (GHZ):         293.6188062          40.1406502          35.3130063
 Leave Link  202 at Fri Feb 23 12:25:14 2024, MaxMem= 14763950080 cpu:               0.1 elap:               0.0
 (Enter /apps/gaussian/g16-c01-avx2/g16/l301.exe)
 Standard basis: 6-31G(d) (6D, 7F)
 Ernie: Thresh=  0.10000D-02 Tol=  0.10000D-05 Strict=F.
 There are    18 symmetry adapted cartesian basis functions of A1  symmetry.
 There are     2 symmetry adapted cartesian basis functions of A2  symmetry.
 There are     6 symmetry adapted cartesian basis functions of B1  symmetry.
 There are     8 symmetry adapted cartesian basis functions of B2  symmetry.
 There are    18 symmetry adapted basis functions of A1  symmetry.
 There are     2 symmetry adapted basis functions of A2  symmetry.
 There are     6 symmetry adapted basis functions of B1  symmetry.
 There are     8 symmetry adapted basis functions of B2  symmetry.
    34 basis functions,    64 primitive gaussians,    34 cartesian basis functions
     8 alpha electrons        8 beta electrons
       nuclear repulsion energy        31.8009292089 Hartrees.
 IExCor=    0 DFT=F Ex=HF Corr=None ExCW=0 ScaHFX=  1.000000
 ScaDFX=  1.000000  1.000000  1.000000  1.000000 ScalE2=  1.000000  1.000000
 IRadAn=      5 IRanWt=     -1 IRanGd=            0 ICorTp=0 IEmpDi=  4
 NAtoms=    4 NActive=    4 NUniq=    3 SFac= 1.78D+00 NAtFMM=   60 NAOKFM=F Big=F
 Integral buffers will be    131072 words long.
 Raffenetti 1 integral format.
 Two-electron integral symmetry is turned on.
 Leave Link  301 at Fri Feb 23 12:25:14 2024, MaxMem= 14763950080 cpu:               0.7 elap:               0.0
 (Enter /apps/gaussian/g16-c01-avx2/g16/l302.exe)
 NPDir=0 NMtPBC=     1 NCelOv=     1 NCel=       1 NClECP=     1 NCelD=      1
         NCelK=      1 NCelE2=     1 NClLst=     1 CellRange=     0.0.
 One-electron integrals computed using PRISM.
 One-electron integral symmetry used in STVInt
 NBasis=    34 RedAO= T EigKep=  8.53D-03  NBF=    18     2     6     8
 NBsUse=    34 1.00D-06 EigRej= -1.00D+00 NBFU=    18     2     6     8
 Leave Link  302 at Fri Feb 23 12:25:14 2024, MaxMem= 14763950080 cpu:               1.6 elap:               0.1
 (Enter /apps/gaussian/g16-c01-avx2/g16/l303.exe)
 DipDrv:  MaxL=1.
 Leave Link  303 at Fri Feb 23 12:25:15 2024, MaxMem= 14763950080 cpu:               0.3 elap:               0.0
 (Enter /apps/gaussian/g16-c01-avx2/g16/l401.exe)
 Initial guess from the checkpoint file:  "6-31G_job1.chk"
 B after Tr=    -0.000000    0.000000    0.000000
         Rot=    1.000000    0.000000   -0.000000    0.000000 Ang=   0.00 deg.
 Guess basis will be translated and rotated to current coordinates.
 JPrj=2 DoOrth=T DoCkMO=T.
 Initial guess orbital symmetries:
       Occupied  (A1) (A1) (A1) (A1) (B2) (A1) (B1) (B2)
       Virtual   (B1) (A1) (B2) (A1) (B1) (A1) (B2) (A1) (B2) (A1)
                 (A1) (B1) (B2) (A1) (A2) (B1) (A1) (B2) (A2) (A1)
                 (A1) (B1) (B2) (A1) (A1) (A1)
 The electronic state of the initial guess is 1-A1.
 Leave Link  401 at Fri Feb 23 12:25:15 2024, MaxMem= 14763950080 cpu:               1.1 elap:               0.0
 (Enter /apps/gaussian/g16-c01-avx2/g16/l502.exe)
 Keep R1 ints in memory in symmetry-blocked form, NReq=6768298.
 FoFCou: FMM=F IPFlag=           0 FMFlag=           0 FMFlg1=           0
         NFxFlg=           0 DoJE=F BraDBF=F KetDBF=F FulRan=T
         wScrn=  0.000000 ICntrl=       600 IOpCl=  0 I1Cent=           0 NGrid=           0
         NMat0=    1 NMatS0=    595 NMatT0=    0 NMatD0=    1 NMtDS0=    0 NMtDT0=    0
 Petite list used in FoFCou.
 Closed shell SCF:
 Using DIIS extrapolation, IDIIS=  1040.
 NGot= 14763950080 LenX= 14763893126 LenY= 14763891529
 Requested convergence on RMS density matrix=1.00D-08 within 128 cycles.
 Requested convergence on MAX density matrix=1.00D-06.
 Requested convergence on             energy=1.00D-06.
 No special actions if energy rises.

 Cycle   1  Pass 1  IDiag  1:
 E= -113.866330367137    
 DIIS: error= 1.38D-04 at cycle   1 NSaved=   1.
 NSaved= 1 IEnMin= 1 EnMin= -113.866330367137     IErMin= 1 ErrMin= 1.38D-04
 ErrMax= 1.38D-04  0.00D+00 EMaxC= 1.00D-01 BMatC= 5.87D-07 BMatP= 5.87D-07
 IDIUse=3 WtCom= 9.99D-01 WtEn= 1.38D-03
 Coeff-Com:  0.100D+01
 Coeff-En:   0.100D+01
 Coeff:      0.100D+01
 Gap=     0.581 Goal=   None    Shift=    0.000
 RMSDP=2.26D-05 MaxDP=2.36D-04              OVMax= 3.33D-04

 Cycle   2  Pass 1  IDiag  1:
 E= -113.866331152483     Delta-E=       -0.000000785346 Rises=F Damp=F
 DIIS: error= 4.80D-05 at cycle   2 NSaved=   2.
 NSaved= 2 IEnMin= 2 EnMin= -113.866331152483     IErMin= 2 ErrMin= 4.80D-05
 ErrMax= 4.80D-05  0.00D+00 EMaxC= 1.00D-01 BMatC= 6.68D-08 BMatP= 5.87D-07
 IDIUse=1 WtCom= 1.00D+00 WtEn= 0.00D+00
 Coeff-Com: -0.215D-02 0.100D+01
 Coeff:     -0.215D-02 0.100D+01
 Gap=     0.581 Goal=   None    Shift=    0.000
 RMSDP=8.86D-06 MaxDP=8.13D-05 DE=-7.85D-07 OVMax= 1.26D-04

 Cycle   3  Pass 1  IDiag  1:
 E= -113.866331222783     Delta-E=       -0.000000070300 Rises=F Damp=F
 DIIS: error= 3.21D-05 at cycle   3 NSaved=   3.
 NSaved= 3 IEnMin= 3 EnMin= -113.866331222783     IErMin= 3 ErrMin= 3.21D-05
 ErrMax= 3.21D-05  0.00D+00 EMaxC= 1.00D-01 BMatC= 1.84D-08 BMatP= 6.68D-08
 IDIUse=1 WtCom= 1.00D+00 WtEn= 0.00D+00
 Coeff-Com: -0.105D+00 0.322D+00 0.782D+00
 Coeff:     -0.105D+00 0.322D+00 0.782D+00
 Gap=     0.581 Goal=   None    Shift=    0.000
 RMSDP=3.46D-06 MaxDP=4.39D-05 DE=-7.03D-08 OVMax= 7.01D-05

 Cycle   4  Pass 1  IDiag  1:
 E= -113.866331243109     Delta-E=       -0.000000020325 Rises=F Damp=F
 DIIS: error= 6.07D-06 at cycle   4 NSaved=   4.
 NSaved= 4 IEnMin= 4 EnMin= -113.866331243109     IErMin= 4 ErrMin= 6.07D-06
 ErrMax= 6.07D-06  0.00D+00 EMaxC= 1.00D-01 BMatC= 1.20D-09 BMatP= 1.84D-08
 IDIUse=1 WtCom= 1.00D+00 WtEn= 0.00D+00
 Coeff-Com:  0.173D-01-0.140D+00-0.467D-02 0.113D+01
 Coeff:      0.173D-01-0.140D+00-0.467D-02 0.113D+01
 Gap=     0.581 Goal=   None    Shift=    0.000
 RMSDP=1.68D-06 MaxDP=1.22D-05 DE=-2.03D-08 OVMax= 2.22D-05

 Cycle   5  Pass 1  IDiag  1:
 E= -113.866331245015     Delta-E=       -0.000000001906 Rises=F Damp=F
 DIIS: error= 1.74D-06 at cycle   5 NSaved=   5.
 NSaved= 5 IEnMin= 5 EnMin= -113.866331245015     IErMin= 5 ErrMin= 1.74D-06
 ErrMax= 1.74D-06  0.00D+00 EMaxC= 1.00D-01 BMatC= 8.88D-11 BMatP= 1.20D-09
 IDIUse=1 WtCom= 1.00D+00 WtEn= 0.00D+00
 Coeff-Com:  0.480D-02-0.152D-01-0.221D-01-0.155D+00 0.119D+01
 Coeff:      0.480D-02-0.152D-01-0.221D-01-0.155D+00 0.119D+01
 Gap=     0.581 Goal=   None    Shift=    0.000
 RMSDP=5.73D-07 MaxDP=5.06D-06 DE=-1.91D-09 OVMax= 9.03D-06

 Cycle   6  Pass 1  IDiag  1:
 E= -113.866331245249     Delta-E=       -0.000000000234 Rises=F Damp=F
 DIIS: error= 7.96D-07 at cycle   6 NSaved=   6.
 NSaved= 6 IEnMin= 6 EnMin= -113.866331245249     IErMin= 6 ErrMin= 7.96D-07
 ErrMax= 7.96D-07  0.00D+00 EMaxC= 1.00D-01 BMatC= 1.40D-11 BMatP= 8.88D-11
 IDIUse=1 WtCom= 1.00D+00 WtEn= 0.00D+00
 Coeff-Com: -0.369D-02 0.226D-01 0.192D-01-0.166D+00-0.196D+00 0.132D+01
 Coeff:     -0.369D-02 0.226D-01 0.192D-01-0.166D+00-0.196D+00 0.132D+01
 Gap=     0.581 Goal=   None    Shift=    0.000
 RMSDP=2.77D-07 MaxDP=2.43D-06 DE=-2.34D-10 OVMax= 4.86D-06

 Cycle   7  Pass 1  IDiag  1:
 E= -113.866331245291     Delta-E=       -0.000000000042 Rises=F Damp=F
 DIIS: error= 1.93D-07 at cycle   7 NSaved=   7.
 NSaved= 7 IEnMin= 7 EnMin= -113.866331245291     IErMin= 7 ErrMin= 1.93D-07
 ErrMax= 1.93D-07  0.00D+00 EMaxC= 1.00D-01 BMatC= 8.71D-13 BMatP= 1.40D-11
 IDIUse=1 WtCom= 1.00D+00 WtEn= 0.00D+00
 Coeff-Com:  0.230D-03-0.380D-02 0.180D-02 0.404D-01-0.640D-01-0.278D+00
 Coeff-Com:  0.130D+01
 Coeff:      0.230D-03-0.380D-02 0.180D-02 0.404D-01-0.640D-01-0.278D+00
 Coeff:      0.130D+01
 Gap=     0.581 Goal=   None    Shift=    0.000
 RMSDP=6.29D-08 MaxDP=5.77D-07 DE=-4.20D-11 OVMax= 1.10D-06

 Cycle   8  Pass 1  IDiag  1:
 E= -113.866331245293     Delta-E=       -0.000000000002 Rises=F Damp=F
 DIIS: error= 1.78D-08 at cycle   8 NSaved=   8.
 NSaved= 8 IEnMin= 8 EnMin= -113.866331245293     IErMin= 8 ErrMin= 1.78D-08
 ErrMax= 1.78D-08  0.00D+00 EMaxC= 1.00D-01 BMatC= 7.77D-15 BMatP= 8.71D-13
 IDIUse=1 WtCom= 1.00D+00 WtEn= 0.00D+00
 Coeff-Com:  0.718D-06 0.386D-03-0.484D-03-0.523D-02 0.189D-01 0.241D-01
 Coeff-Com: -0.250D+00 0.121D+01
 Coeff:      0.718D-06 0.386D-03-0.484D-03-0.523D-02 0.189D-01 0.241D-01
 Coeff:     -0.250D+00 0.121D+01
 Gap=     0.581 Goal=   None    Shift=    0.000
 RMSDP=6.75D-09 MaxDP=5.08D-08 DE=-2.07D-12 OVMax= 5.60D-08

 SCF Done:  E(RHF) =  -113.866331245     A.U. after    8 cycles
            NFock=  8  Conv=0.67D-08     -V/T= 2.0020
 KE= 1.136357618225D+02 PE=-3.319076562521D+02 EE= 7.260463397538D+01
 Leave Link  502 at Fri Feb 23 12:25:15 2024, MaxMem= 14763950080 cpu:               2.3 elap:               0.1
 (Enter /apps/gaussian/g16-c01-avx2/g16/l701.exe)
 ... and contract with generalized density number  0.
 Compute integral first derivatives.
 Leave Link  701 at Fri Feb 23 12:25:15 2024, MaxMem= 14763950080 cpu:               1.8 elap:               0.1
 (Enter /apps/gaussian/g16-c01-avx2/g16/l702.exe)
 L702 exits ... SP integral derivatives will be done elsewhere.
 Leave Link  702 at Fri Feb 23 12:25:15 2024, MaxMem= 14763950080 cpu:               0.3 elap:               0.0
 (Enter /apps/gaussian/g16-c01-avx2/g16/l703.exe)
 Integral derivatives from FoFJK, PRISM(SPDF).
 Compute integral first derivatives, UseDBF=F ICtDFT=           0.
 Calling FoFJK, ICntrl=      2127 FMM=F ISym2X=1 I1Cent= 0 IOpClX= 0 NMat=1 NMatS=1 NMatT=0.
 FoFJK:  IHMeth= 1 ICntrl=    2127 DoSepK=F KAlg= 0 I1Cent=           0 FoldK=F
 IRaf=         0 NMat=       1 IRICut=       1 DoRegI=T DoRafI=F ISym2E= 1 IDoP0=0 IntGTp=1.
 FoFCou: FMM=F IPFlag=           0 FMFlag=      100000 FMFlg1=         800
         NFxFlg=           0 DoJE=F BraDBF=F KetDBF=F FulRan=T
         wScrn=  0.000000 ICntrl=      2127 IOpCl=  0 I1Cent=           0 NGrid=           0
         NMat0=    1 NMatS0=      1 NMatT0=    0 NMatD0=    1 NMtDS0=    0 NMtDT0=    0
 Petite list used in FoFCou.
 Leave Link  703 at Fri Feb 23 12:25:15 2024, MaxMem= 14763950080 cpu:               2.9 elap:               0.1
 (Enter /apps/gaussian/g16-c01-avx2/g16/l716.exe)
 Dipole        = 2.14640048D-17-7.99660773D-16-1.04885552D+00
 ***** Axes restored to original set *****
 -------------------------------------------------------------------
 Center     Atomic                   Forces (Hartrees/Bohr)
 Number     Number              X              Y              Z
 -------------------------------------------------------------------
      1        6          -0.000069325   -0.000120125   -0.000000000
      2        1           0.000021448   -0.000016824    0.000000000
      3        1          -0.000025298    0.000010153    0.000000000
      4        8           0.000073175    0.000126796   -0.000000000
 -------------------------------------------------------------------
 Cartesian Forces:  Max     0.000126796 RMS     0.000059269
 Leave Link  716 at Fri Feb 23 12:25:15 2024, MaxMem= 14763950080 cpu:               0.3 elap:               0.0
 (Enter /apps/gaussian/g16-c01-avx2/g16/l103.exe)

 GradGradGradGradGradGradGradGradGradGradGradGradGradGradGradGradGradGrad
 Berny optimization.
 Using GEDIIS/GDIIS optimizer.
[...]
         X                                                                    X                                                      
         X                                                                    X                                                      
         X                                                                    X                                                      
         X                                                                    X                                                      
         X                                                                    X                                                      
         X                                                                    X                                                      
         X                                                                    X                                                      
         X                                                                    X                                                      
         X                                                                    X                                                      
                                                                              X                                                      
                                                                              X                                                      
 
 ***** Axes restored to original set *****
 -------------------------------------------------------------------
 Center     Atomic                   Forces (Hartrees/Bohr)
 Number     Number              X              Y              Z
 -------------------------------------------------------------------
      1        6           0.000106475    0.000184497   -0.000000000
      2        1           0.000010934    0.000005174   -0.000000000
      3        1          -0.000000991    0.000012056    0.000000000
      4        8          -0.000116418   -0.000201727   -0.000000000
 -------------------------------------------------------------------
 Cartesian Forces:  Max     0.000201727 RMS     0.000091248
 -------------------------------------------------------------------
 Center     Atomic                Nonadiabatic Coup. (Bohr^-1)
 Number     Number              X              Y              Z
 -------------------------------------------------------------------
      1        6           0.000000000   -0.000000000    0.000000000
      2        1          -0.000000000    0.000000000    0.314064100
      3        1          -0.000000000   -0.000000000   -0.314064100
      4        8           0.000000000    0.000000000    0.000000000
 -------------------------------------------------------------------
 Cartesian Nonad. Coup.:  Max     0.314064100 RMS     0.128216132
 Force constants in Cartesian coordinates: 
                1             2             3             4             5 
      1  0.687355D+00
      2  0.120478D+00  0.826589D+00
      3  0.000000D+00  0.000000D+00 -0.204872D-01
      4 -0.131790D+00  0.137467D+00  0.000000D+00  0.137094D+00
      5  0.149167D+00 -0.260304D+00  0.000000D+00 -0.146525D+00  0.301513D+00
      6  0.000000D+00  0.000000D+00  0.725018D-02  0.000000D+00  0.000000D+00
      7 -0.352303D+00  0.217463D-01  0.000000D+00 -0.110879D-01 -0.311523D-02
      8  0.100460D-01 -0.397909D-01  0.000000D+00  0.267599D-01  0.257482D-02
      9  0.000000D+00  0.000000D+00  0.725020D-02  0.000000D+00  0.000000D+00
     10 -0.203262D+00 -0.279691D+00  0.000000D+00  0.578328D-02  0.473813D-03
     11 -0.279691D+00 -0.526493D+00  0.000000D+00 -0.177009D-01 -0.437831D-01
     12  0.000000D+00  0.000000D+00  0.598683D-02  0.000000D+00  0.000000D+00
                6             7             8             9            10 
      6 -0.255506D-02
      7  0.000000D+00  0.387304D+00
      8  0.000000D+00 -0.194521D-02  0.513027D-01
      9 -0.255116D-02  0.000000D+00  0.000000D+00 -0.255506D-02
     10  0.000000D+00 -0.239132D-01 -0.348606D-01  0.000000D+00  0.221392D+00
     11  0.000000D+00 -0.166859D-01 -0.140866D-01  0.000000D+00  0.314078D+00
     12 -0.214396D-02  0.000000D+00  0.000000D+00 -0.214398D-02  0.000000D+00
               11            12 
     11  0.584363D+00
     12  0.000000D+00 -0.169890D-02
 FormGI is forming the generalized inverse of G from B-inverse, IUseBI=4.
 Force constants in internal coordinates: 
                1             2             3             4             5 
      1  0.387296D+00
      2  0.315539D-02  0.387296D+00
      3  0.260023D-01  0.260023D-01  0.765620D+00
      4  0.602208D-02  0.602208D-02 -0.408044D-01  0.699011D-01
      5  0.113256D-01 -0.173477D-01  0.204022D-01 -0.349506D-01  0.740782D-01
      6 -0.173477D-01  0.113256D-01  0.204022D-01 -0.349506D-01 -0.391276D-01
      7  0.000000D+00  0.000000D+00  0.000000D+00  0.000000D+00  0.000000D+00
                6             7 
      6  0.740782D-01
      7  0.000000D+00 -0.811508D-02
 Leave Link  716 at Fri Feb 23 12:25:45 2024, MaxMem= 14763950080 cpu:               0.4 elap:               0.0
 (Enter /apps/gaussian/g16-c01-avx2/g16/l103.exe)

 GradGradGradGradGradGradGradGradGradGradGradGradGradGradGradGradGradGrad
 Berny optimization.
 Red2BG is reusing G-inverse.
 Internal  Forces:  Max     0.000232909 RMS     0.000088360
 Search for a local minimum.
 Step number   1 out of a maximum of    2
 All quantities printed in internal units (Hartrees-Bohrs-Radians)
 Second derivative matrix not updated -- analytic derivatives used.
 The second derivative matrix:
                          R1        R2        R3        A1        A2
           R1           0.38730
           R2           0.00316   0.38730
           R3           0.02600   0.02600   0.76562
           A1           0.00602   0.00602  -0.04080   0.06990
           A2           0.01133  -0.01735   0.02040  -0.03495   0.07408
           A3          -0.01735   0.01133   0.02040  -0.03495  -0.03913
           D1          -0.00000   0.00000  -0.00000   0.00000  -0.00000
                          A3        D1
           A3           0.07408
           D1           0.00000  -0.00812
 ITU=  0
     Eigenvalues ---   -0.00812   0.10049   0.11020   0.38714   0.38768
     Eigenvalues ---    0.77275
 Eigenvalue     1 is  -8.12D-03 should be greater than     0.000000 Eigenvector:
                          D1        R3        R2        A2        A1
   1                    1.00000   0.00000  -0.00000   0.00000  -0.00000
                          A3        R1
   1                   -0.00000  -0.00000
 Angle between quadratic step and forces=   6.41 degrees.
 Linear search not attempted -- first point.
 Iteration  1 RMS(Cart)=  0.00010584 RMS(Int)=  0.00000000
 Iteration  2 RMS(Cart)=  0.00000000 RMS(Int)=  0.00000000
 ITry= 1 IFail=0 DXMaxC= 2.06D-04 DCOld= 1.00D+10 DXMaxT= 3.00D-01 DXLimC= 3.00D+00 Rises=F
 Variable       Old X    -DE/DX   Delta X   Delta X   Delta X     New X
                                 (Linear)    (Quad)   (Total)
    R1        2.04163   0.00000   0.00000   0.00002   0.00002   2.04165
    R2        2.04163   0.00000   0.00000   0.00002   0.00002   2.04165
    R3        2.37802  -0.00023   0.00000  -0.00030  -0.00030   2.37772
    A1        2.12176   0.00002   0.00000   0.00004   0.00004   2.12180
    A2        2.08071  -0.00001   0.00000  -0.00002  -0.00002   2.08069
    A3        2.08071  -0.00001   0.00000  -0.00002  -0.00002   2.08069
    D1        3.14159   0.00000   0.00000   0.00000   0.00000   3.14159
         Item               Value     Threshold  Converged?
 Maximum Force            0.000233     0.000450     YES
 RMS     Force            0.000088     0.000300     YES
 Maximum Displacement     0.000206     0.001800     YES
 RMS     Displacement     0.000106     0.001200     YES
 Predicted change in Energy=-3.573575D-08
 Optimization completed.
    -- Stationary point found.
                           ----------------------------
                           !   Optimized Parameters   !
                           ! (Angstroms and Degrees)  !
 --------------------------                            --------------------------
 ! Name  Definition              Value          Derivative Info.                !
 --------------------------------------------------------------------------------
 ! R1    R(1,2)                  1.0804         -DE/DX =    0.0                 !
 ! R2    R(1,3)                  1.0804         -DE/DX =    0.0                 !
 ! R3    R(1,4)                  1.2584         -DE/DX =   -0.0002              !
 ! A1    A(2,1,3)              121.5681         -DE/DX =    0.0                 !
 ! A2    A(2,1,4)              119.2159         -DE/DX =    0.0                 !
 ! A3    A(3,1,4)              119.2159         -DE/DX =    0.0                 !
 ! D1    D(2,1,4,3)            180.0            -DE/DX =    0.0                 !
 --------------------------------------------------------------------------------
 GradGradGradGradGradGradGradGradGradGradGradGradGradGradGradGradGradGrad

 Leave Link  103 at Fri Feb 23 12:25:45 2024, MaxMem= 14763950080 cpu:               0.2 elap:               0.0
 (Enter /apps/gaussian/g16-c01-avx2/g16/l9999.exe)
 -------------------------------------------------------------------
 Center     Atomic                Nonadiabatic Coup. (Bohr^-1)
 Number     Number              X              Y              Z
 -------------------------------------------------------------------
      1        6           0.000000000   -0.000000000    0.000000000
      2        1          -0.000000000    0.000000000    0.314064100
      3        1          -0.000000000   -0.000000000   -0.314064100
      4        8           0.000000000    0.000000000    0.000000000
 -------------------------------------------------------------------
 Cartesian Nonad. Coup.:  Max     0.314064100 RMS     0.128216132
 Electronic transition elements 
                 1             2             3 
      1  -0.113699D+03 -0.113526D+03 -0.113509D+03
      2   0.000000D+00  0.000000D+00  0.514569D+00
      3   0.000000D+00  0.000000D+00  0.891634D+00
      4   0.000000D+00 -0.777305D-01  0.000000D+00
      5   0.000000D+00  0.000000D+00 -0.395593D-01
      6   0.000000D+00  0.000000D+00 -0.685476D-01
      7   0.000000D+00  0.591638D-02  0.000000D+00
      8   0.559455D+00  0.130023D+01  0.000000D+00
      9   0.969412D+00 -0.750375D+00  0.000000D+00
     10   0.000000D+00  0.000000D+00  0.000000D+00
     11   0.000000D+00  0.000000D+00 -0.288624D-01
     12   0.000000D+00  0.000000D+00 -0.803356D-01
     13   0.000000D+00  0.000000D+00  0.200924D+00
     14   0.000000D+00  0.000000D+00 -0.445397D-01
     15   0.269981D-02  0.626485D-01  0.000000D+00
     16  -0.155808D-02  0.108556D+00  0.000000D+00
 Electronic Transition Derivatives 
                 1             2             3             4             5 
      1   0.000000D+00  0.000000D+00  0.000000D+00  0.000000D+00  0.000000D+00
      2   0.000000D+00  0.000000D+00 -0.614791D+00  0.000000D+00  0.000000D+00
      3   0.000000D+00  0.000000D+00  0.354801D+00  0.000000D+00  0.000000D+00
      4  -0.797117D+00  0.460023D+00  0.000000D+00 -0.188327D+00  0.108685D+00
      5   0.000000D+00  0.000000D+00 -0.513294D-01  0.000000D+00  0.000000D+00
      6   0.000000D+00  0.000000D+00  0.296226D-01  0.000000D+00  0.000000D+00
      7   0.107858D+00 -0.622457D-01  0.000000D+00 -0.459419D-02  0.265134D-02
      8  -0.175094D+00  0.461260D+00  0.000000D+00 -0.517086D+00  0.455312D+00
      9   0.461260D+00  0.357971D+00  0.000000D+00  0.455312D+00  0.910491D-02
     10   0.000000D+00  0.000000D+00 -0.297114D+00  0.000000D+00  0.000000D+00
     11   0.000000D+00  0.000000D+00  0.128208D+00  0.000000D+00  0.000000D+00
     12   0.000000D+00  0.000000D+00 -0.128208D+00  0.000000D+00  0.000000D+00
     13   0.000000D+00  0.000000D+00  0.000000D+00  0.000000D+00  0.000000D+00
     14   0.000000D+00  0.000000D+00  0.740833D-01  0.000000D+00  0.000000D+00
     15  -0.358753D+00 -0.194915D+00  0.000000D+00 -0.341255D-01 -0.374259D-01
     16  -0.219685D+00  0.358753D+00  0.000000D+00 -0.201215D-02  0.341256D-01
                 6             7             8             9            10 
      1   0.000000D+00  0.000000D+00  0.000000D+00  0.000000D+00  0.000000D+00
      2  -0.252796D+00  0.000000D+00  0.000000D+00  0.890719D-01  0.000000D+00
      3   0.145890D+00  0.000000D+00  0.000000D+00 -0.514039D-01  0.000000D+00
      4   0.000000D+00  0.659322D-01 -0.495824D-01  0.000000D+00  0.759175D-01
      5   0.260515D-01  0.000000D+00  0.000000D+00 -0.917920D-02  0.000000D+00
      6  -0.150345D-01  0.000000D+00  0.000000D+00  0.529739D-02  0.000000D+00
      7   0.000000D+00  0.148550D-02 -0.447772D-02  0.000000D+00  0.462022D-02
      8   0.000000D+00  0.948345D-01  0.554329D-02  0.000000D+00  0.279994D-01
      9   0.000000D+00 -0.291978D-01 -0.798483D-02  0.000000D+00 -0.330764D-01
     10  -0.224321D+00  0.000000D+00  0.000000D+00 -0.868003D-01  0.000000D+00
     11  -0.334330D-01  0.000000D+00  0.000000D+00  0.108677D-01  0.000000D+00
     12   0.334330D-01  0.000000D+00  0.000000D+00 -0.126169D-01  0.000000D+00
     13   0.000000D+00  0.000000D+00  0.000000D+00  0.174939D-02  0.000000D+00
     14  -0.193188D-01  0.000000D+00  0.000000D+00  0.779533D-02  0.000000D+00
     15   0.000000D+00  0.534797D-02  0.223378D-02  0.000000D+00 -0.529479D-02
     16   0.000000D+00  0.561714D-02  0.981356D-02  0.000000D+00 -0.220304D-02
                11            12            13            14            15 
      1   0.000000D+00  0.000000D+00  0.000000D+00  0.000000D+00  0.000000D+00
      2   0.000000D+00  0.890718D-01  0.000000D+00  0.000000D+00  0.746519D-01
      3   0.000000D+00 -0.514042D-01  0.000000D+00  0.000000D+00 -0.430822D-01
      4  -0.322801D-01  0.000000D+00  0.464778D-01 -0.268227D-01  0.000000D+00
      5   0.000000D+00 -0.917919D-02  0.000000D+00  0.000000D+00 -0.769315D-02
      6   0.000000D+00  0.529738D-02  0.000000D+00  0.000000D+00  0.443978D-02
      7   0.954056D-03  0.000000D+00 -0.151154D-02  0.872322D-03  0.000000D+00
      8  -0.678174D-01  0.000000D+00  0.394252D+00 -0.393038D+00  0.000000D+00
      9   0.588503D-01  0.000000D+00 -0.393038D+00 -0.599703D-01  0.000000D+00
     10   0.000000D+00 -0.868003D-01  0.000000D+00  0.000000D+00  0.397921D+00
     11   0.000000D+00  0.134922D-01  0.000000D+00  0.000000D+00  0.907314D-02
     12   0.000000D+00 -0.117429D-01  0.000000D+00  0.000000D+00 -0.907314D-02
     13   0.000000D+00 -0.174939D-02  0.000000D+00  0.000000D+00  0.000000D+00
     14   0.000000D+00  0.628067D-02  0.000000D+00  0.000000D+00  0.524278D-02
     15  -0.558635D-02  0.000000D+00  0.340723D-01  0.407785D-01  0.000000D+00
     16  -0.986678D-02  0.000000D+00 -0.140196D-02 -0.340724D-01  0.000000D+00

 ----------------------------------------------------------------------

 Electric dipole moment (input orientation):
 (Debye = 10**-18 statcoulomb cm , SI units = C m)
                  (au)            (Debye)         (10**-30 SI)
   Tot        0.563488D+00      0.143224D+01      0.477745D+01
   x         -0.281655D+00     -0.715896D+00     -0.238797D+01
   y         -0.488046D+00     -0.124049D+01     -0.413783D+01
   z          0.000000D+00      0.000000D+00      0.000000D+00

 Dipole polarizability, Alpha (input orientation).
 (esu units = cm**3 , SI units = C**2 m**2 J**-1)
 Alpha(0;0):
               (au)            (10**-24 esu)      (10**-40 SI)
   iso        0.125874D+02      0.186526D+01      0.207538D+01
   aniso      0.982365D+01      0.145571D+01      0.161970D+01
   xx         0.135735D+02      0.201138D+01      0.223796D+01
   yx         0.288195D+01      0.427061D+00      0.475169D+00
   yy         0.169040D+02      0.250492D+01      0.278710D+01
   zx         0.000000D+00      0.000000D+00      0.000000D+00
   zy         0.000000D+00      0.000000D+00      0.000000D+00
   zz         0.728466D+01      0.107948D+01      0.120108D+01

 ----------------------------------------------------------------------

 Dipole orientation:
     6         -0.40967521          0.23642673          1.16213960
     1          1.13366001         -0.65424395          2.15866227
     1         -1.95301043          1.12709740          2.15866227
     8         -0.40967521          0.23642673         -1.21588443

 Electric dipole moment (dipole orientation):
 (Debye = 10**-18 statcoulomb cm , SI units = C m)
                  (au)            (Debye)         (10**-30 SI)
   Tot        0.563488D+00      0.143224D+01      0.477745D+01
   x          0.000000D+00      0.000000D+00      0.000000D+00
   y          0.000000D+00      0.000000D+00      0.000000D+00
   z          0.563488D+00      0.143224D+01      0.477745D+01

 Dipole polarizability, Alpha (dipole orientation).
 (esu units = cm**3 , SI units = C**2 m**2 J**-1)
 Alpha(0;0):
               (au)            (10**-24 esu)      (10**-40 SI)
   iso        0.125874D+02      0.186526D+01      0.207538D+01
   aniso      0.982365D+01      0.145571D+01      0.161970D+01
   xx         0.107546D+02      0.159367D+01      0.177319D+01
   yx        -0.200252D+01     -0.296743D+00     -0.330171D+00
   yy         0.844033D+01      0.125073D+01      0.139162D+01
   zx         0.000000D+00      0.000000D+00      0.000000D+00
   zy         0.000000D+00      0.000000D+00      0.000000D+00
   zz         0.185672D+02      0.275138D+01      0.306132D+01

 ----------------------------------------------------------------------
 Unable to Open any file for archive entry.
 1\1\GINC-CX3-1-7\Freq\RCIS-FC\6-31G(d)\C1H2O1\RK820\23-Feb-2024\0\\#p 
 CIS(Root=1)/6-31G* geom=check Density=Current Freq\\CIS/6-31G* for for
 maldehyde, performing a frequency calculation on the first excited sta
 te.\\0,1\C,-0.5241827804,-0.4075306865,0.\H,0.0289295914,-1.3355885843
 ,0.\H,-1.6044660612,-0.3929433412,0.\O,0.1048170023,0.6823867751,0.\\V
 ersion=ES64L-G16RevC.01\State=1-A1\HF=-113.8569956\RMSD=4.833e-09\RMSF
 =9.125e-05\ZeroPoint=0.0243806\Thermal=0.0272615\ETot=-113.6715933\HTo
 t=-113.6706491\GTot=-113.6955392\Dipole=-0.2816551,-0.4880461,0.\Dipol
 eDeriv=0.0684983,-0.1907342,0.,-0.1907342,-0.1519277,0.,0.,0.,-0.56815
 77,0.0419625,0.0390869,0.,0.0635469,0.1844215,0.,0.,0.,0.2836797,0.104
 3015,0.0995686,0.,0.0751086,0.1220826,0.,0.,0.,0.2836797,-0.2147623,0.
 0520787,0.,0.0520787,-0.1545764,0.,0.,0.,0.0007984\Polar=13.5734574,2.
 8819493,16.9040428,0.,0.,7.2846624\Quadrupole=0.9253227,0.3654827,-1.2
 908054,-0.4844285,0.,0.\PG=C02V [C2(C1O1),SGV(H2)]\NImag=1\\0.68735517
 ,0.12047841,0.82658858,0.,0.,-0.02048721,-0.13178969,0.13746651,0.,0.1
 3709430,0.14916685,-0.26030436,0.,-0.14652543,0.30151267,0.,0.,0.00725
 018,0.,0.,-0.00255506,-0.35230319,0.02174632,0.,-0.01108789,-0.0031152
 3,0.,0.38730429,0.01004598,-0.03979087,0.,0.02675987,0.00257482,0.,-0.
 00194521,0.05130269,0.,0.,0.00725020,0.,0.,-0.00255116,0.,0.,-0.002555
 06,-0.20326229,-0.27969123,0.,0.00578328,0.00047381,0.,-0.02391321,-0.
 03486063,0.,0.22139222,-0.27969124,-0.52649335,0.,-0.01770094,-0.04378
 313,0.,-0.01668588,-0.01408664,0.,0.31407805,0.58436313,0.,0.,0.005986
 83,0.,0.,-0.00214396,0.,0.,-0.00214398,0.,0.,-0.00169890\\-0.00010647,
 -0.00018450,0.,-0.00001093,-0.00000517,0.,0.00000099,-0.00001206,0.,0.
 00011642,0.00020173,0.\\\@
 The archive entry for this job was punched.


 ACCORDING TO HEN3RY, LIFE IS MUCH LIKE A SEWER........
 YOU GET OUT OF IT JUST WHAT YOU PUT INTO IT...........
                         TOM LEHRER - (THE 3 IS SILENT)
 Job cpu time:       0 days  0 hours  0 minutes 55.9 seconds.
 Elapsed time:       0 days  0 hours  0 minutes  2.0 seconds.
 File lengths (MBytes):  RWF=      8 Int=      0 D2E=      0 Chk=      2 Scr=      1
 Normal termination of Gaussian 16 at Fri Feb 23 12:25:45 2024.
