 Entering Gaussian System, Link 0=g16
 Input=Phenanthrene_c.gjf
 Output=Phenanthrene_c.log
 Initial command:
 /apps/gaussian/g16-c01-avx2/g16/l1.exe "/var/tmp/pbs.9194007.pbs/Gau-1337504.inp" -scrdir="/var/tmp/pbs.9194007.pbs/"
 Entering Link 1 = /apps/gaussian/g16-c01-avx2/g16/l1.exe PID=   1337505.
  
 Copyright (c) 1988-2019, Gaussian, Inc.  All Rights Reserved.
  
 This is part of the Gaussian(R) 16 program.  It is based on
 the Gaussian(R) 09 system (copyright 2009, Gaussian, Inc.),
 the Gaussian(R) 03 system (copyright 2003, Gaussian, Inc.),
 the Gaussian(R) 98 system (copyright 1998, Gaussian, Inc.),
 the Gaussian(R) 94 system (copyright 1995, Gaussian, Inc.),
 the Gaussian 92(TM) system (copyright 1992, Gaussian, Inc.),
 the Gaussian 90(TM) system (copyright 1990, Gaussian, Inc.),
 the Gaussian 88(TM) system (copyright 1988, Gaussian, Inc.),
 the Gaussian 86(TM) system (copyright 1986, Carnegie Mellon
 University), and the Gaussian 82(TM) system (copyright 1983,
 Carnegie Mellon University). Gaussian is a federally registered
 trademark of Gaussian, Inc.
  
 This software contains proprietary and confidential information,
 including trade secrets, belonging to Gaussian, Inc.
  
 This software is provided under written license and may be
 used, copied, transmitted, or stored only in accord with that
 written license.
  
 The following legend is applicable only to US Government
 contracts under FAR:
  
                    RESTRICTED RIGHTS LEGEND
  
 Use, reproduction and disclosure by the US Government is
 subject to restrictions as set forth in subparagraphs (a)
 and (c) of the Commercial Computer Software - Restricted
 Rights clause in FAR 52.227-19.
  
 Gaussian, Inc.
 340 Quinnipiac St., Bldg. 40, Wallingford CT 06492
  
  
 ---------------------------------------------------------------
 Warning -- This program may not be used in any manner that
 competes with the business of Gaussian, Inc. or will provide
 assistance to any competitor of Gaussian, Inc.  The licensee
 of this program is prohibited from giving any competitor of
 Gaussian, Inc. access to this program.  By using this program,
 the user acknowledges that Gaussian, Inc. is engaged in the
 business of creating and licensing software in the field of
 computational chemistry and represents and warrants to the
 licensee that it is not a competitor of Gaussian, Inc. and that
 it will not use this program in any manner prohibited above.
 ---------------------------------------------------------------
  

 Cite this work as:
 Gaussian 16, Revision C.01,
 M. J. Frisch, G. W. Trucks, H. B. Schlegel, G. E. Scuseria, 
 M. A. Robb, J. R. Cheeseman, G. Scalmani, V. Barone, 
 G. A. Petersson, H. Nakatsuji, X. Li, M. Caricato, A. V. Marenich, 
 J. Bloino, B. G. Janesko, R. Gomperts, B. Mennucci, H. P. Hratchian, 
 J. V. Ortiz, A. F. Izmaylov, J. L. Sonnenberg, D. Williams-Young, 
 F. Ding, F. Lipparini, F. Egidi, J. Goings, B. Peng, A. Petrone, 
 T. Henderson, D. Ranasinghe, V. G. Zakrzewski, J. Gao, N. Rega, 
 G. Zheng, W. Liang, M. Hada, M. Ehara, K. Toyota, R. Fukuda, 
 J. Hasegawa, M. Ishida, T. Nakajima, Y. Honda, O. Kitao, H. Nakai, 
 T. Vreven, K. Throssell, J. A. Montgomery, Jr., J. E. Peralta, 
 F. Ogliaro, M. J. Bearpark, J. J. Heyd, E. N. Brothers, K. N. Kudin, 
 V. N. Staroverov, T. A. Keith, R. Kobayashi, J. Normand, 
 K. Raghavachari, A. P. Rendell, J. C. Burant, S. S. Iyengar, 
 J. Tomasi, M. Cossi, J. M. Millam, M. Klene, C. Adamo, R. Cammi, 
 J. W. Ochterski, R. L. Martin, K. Morokuma, O. Farkas, 
 J. B. Foresman, and D. J. Fox, Gaussian, Inc., Wallingford CT, 2019.
 
 ******************************************
 Gaussian 16:  ES64L-G16RevC.01  3-Jul-2019
                 3-Apr-2024 
 ******************************************
 %Mem=250GB
 %nprocshared=32
 Will use up to   32 processors via shared memory.
 %chk=Phenanthrene_c_1-1.chk
 --------------------------------------------
 #p opt freq b3lyp/def2tzvp geom=connectivity
 --------------------------------------------
 1/18=20,19=15,26=3,38=1,57=2/1,3;
 2/9=110,12=2,17=6,18=5,40=1/2;
 3/5=44,7=101,11=2,25=1,30=1,71=1,74=-5/1,2,3;
 4//1;
 5/5=2,38=5/2;
 6/7=2,8=2,9=2,10=2,28=1/1;
 7//1,2,3,16;
 1/18=20,19=15,26=3/3(2);
 2/9=110/2;
 99//99;
 2/9=110/2;
 3/5=44,7=101,11=2,25=1,30=1,71=1,74=-5/1,2,3;
 4/5=5,16=3,69=1/1;
 5/5=2,38=5/2;
 7//1,2,3,16;
 1/18=20,19=15,26=3/3(-5);
 2/9=110/2;
 6/7=2,8=2,9=2,10=2,19=2,28=1/1;
 99/9=1/99;
 Leave Link    1 at Wed Apr  3 12:21:15 2024, MaxMem= 33554432000 cpu:               0.8 elap:               0.0
 (Enter /apps/gaussian/g16-c01-avx2/g16/l101.exe)
 ----------------------------------------------------------------------
 Ground state optimization and frequency calculation for cationic phena
 nthrene.
 ----------------------------------------------------------------------
 Symbolic Z-matrix:
 Charge =  1 Multiplicity = 2
 C                    -5.04569  -5.19937  -0.00346 
 C                    -3.6658   -5.19937  -0.00346 
 C                    -2.94646  -3.98272  -0.00346 
 C                    -3.64405  -2.75083  -0.00139 
 C                    -5.05804  -2.78069  -0.00098 
 C                    -5.7445   -3.97926  -0.00247 
 C                    -1.51141  -3.9912   -0.00514 
 C                    -2.89462  -1.51414   0.00008 
 C                    -1.47977  -1.56241  -0.00174 
 C                    -0.80808  -2.83059  -0.00483 
 C                    -0.73404  -0.3617    0. 
 H                     0.36499  -0.41836  -0.00142 
 C                    -1.37266   0.86148   0.00368 
 C                    -2.77767   0.91629   0.0056 
 C                    -3.52253  -0.24684   0.00369 
 H                    -1.00182  -4.96697  -0.00697 
 H                    -5.60491  -6.14628  -0.00432 
 H                    -3.10678  -6.14731  -0.00417 
 H                    -5.62742  -1.83972   0.00032 
 H                    -6.84459  -3.98618  -0.00275 
 H                     0.29274  -2.83107  -0.00646 
 H                    -0.79205   1.79544   0.00515 
 H                    -3.28039   1.89481   0.00858 
 H                    -4.62019  -0.17774   0.00532 
 
 ITRead=  0  0  0  0  0  0  0  0  0  0  0  0  0  0  0  0  0  0  0  0
 ITRead=  0  0  0  0
 MicOpt= -1 -1 -1 -1 -1 -1 -1 -1 -1 -1 -1 -1 -1 -1 -1 -1 -1 -1 -1 -1
 MicOpt= -1 -1 -1 -1
 NAtoms=     24 NQM=       24 NQMF=       0 NMMI=      0 NMMIF=      0
                NMic=       0 NMicF=      0.
                    Isotopes and Nuclear Properties:
 (Nuclear quadrupole moments (NQMom) in fm**2, nuclear magnetic moments (NMagM)
  in nuclear magnetons)

  Atom         1           2           3           4           5           6           7           8           9          10
 IAtWgt=          12          12          12          12          12          12          12          12          12          12
 AtmWgt=  12.0000000  12.0000000  12.0000000  12.0000000  12.0000000  12.0000000  12.0000000  12.0000000  12.0000000  12.0000000
 NucSpn=           0           0           0           0           0           0           0           0           0           0
 AtZEff=  -0.0000000  -0.0000000  -0.0000000  -0.0000000  -0.0000000  -0.0000000  -0.0000000  -0.0000000  -0.0000000  -0.0000000
 NQMom=    0.0000000   0.0000000   0.0000000   0.0000000   0.0000000   0.0000000   0.0000000   0.0000000   0.0000000   0.0000000
 NMagM=    0.0000000   0.0000000   0.0000000   0.0000000   0.0000000   0.0000000   0.0000000   0.0000000   0.0000000   0.0000000
 AtZNuc=   6.0000000   6.0000000   6.0000000   6.0000000   6.0000000   6.0000000   6.0000000   6.0000000   6.0000000   6.0000000

  Atom        11          12          13          14          15          16          17          18          19          20
 IAtWgt=          12           1          12          12          12           1           1           1           1           1
 AtmWgt=  12.0000000   1.0078250  12.0000000  12.0000000  12.0000000   1.0078250   1.0078250   1.0078250   1.0078250   1.0078250
 NucSpn=           0           1           0           0           0           1           1           1           1           1
 AtZEff=  -0.0000000  -0.0000000  -0.0000000  -0.0000000  -0.0000000  -0.0000000  -0.0000000  -0.0000000  -0.0000000  -0.0000000
 NQMom=    0.0000000   0.0000000   0.0000000   0.0000000   0.0000000   0.0000000   0.0000000   0.0000000   0.0000000   0.0000000
 NMagM=    0.0000000   2.7928460   0.0000000   0.0000000   0.0000000   2.7928460   2.7928460   2.7928460   2.7928460   2.7928460
 AtZNuc=   6.0000000   1.0000000   6.0000000   6.0000000   6.0000000   1.0000000   1.0000000   1.0000000   1.0000000   1.0000000

  Atom        21          22          23          24
 IAtWgt=           1           1           1           1
 AtmWgt=   1.0078250   1.0078250   1.0078250   1.0078250
 NucSpn=           1           1           1           1
 AtZEff=  -0.0000000  -0.0000000  -0.0000000  -0.0000000
 NQMom=    0.0000000   0.0000000   0.0000000   0.0000000
 NMagM=    2.7928460   2.7928460   2.7928460   2.7928460
 AtZNuc=   1.0000000   1.0000000   1.0000000   1.0000000
 Leave Link  101 at Wed Apr  3 12:21:16 2024, MaxMem= 33554432000 cpu:               6.0 elap:               0.2
 (Enter /apps/gaussian/g16-c01-avx2/g16/l103.exe)

 GradGradGradGradGradGradGradGradGradGradGradGradGradGradGradGradGradGrad
 Berny optimization.
 Initialization pass.
                           ----------------------------
                           !    Initial Parameters    !
                           ! (Angstroms and Degrees)  !
 --------------------------                            --------------------------
 ! Name  Definition              Value          Derivative Info.                !
 --------------------------------------------------------------------------------
 ! R1    R(1,2)                  1.3799         estimate D2E/DX2                !
 ! R2    R(1,6)                  1.4061         estimate D2E/DX2                !
 ! R3    R(1,17)                 1.0997         estimate D2E/DX2                !
 ! R4    R(2,3)                  1.4134         estimate D2E/DX2                !
 ! R5    R(2,18)                 1.1005         estimate D2E/DX2                !
 ! R6    R(3,4)                  1.4157         estimate D2E/DX2                !
 ! R7    R(3,7)                  1.4351         estimate D2E/DX2                !
 ! R8    R(4,5)                  1.4143         estimate D2E/DX2                !
 ! R9    R(4,8)                  1.446          estimate D2E/DX2                !
 ! R10   R(5,6)                  1.3812         estimate D2E/DX2                !
 ! R11   R(5,19)                 1.0998         estimate D2E/DX2                !
 ! R12   R(6,20)                 1.1001         estimate D2E/DX2                !
 ! R13   R(7,10)                 1.3571         estimate D2E/DX2                !
 ! R14   R(7,16)                 1.1008         estimate D2E/DX2                !
 ! R15   R(8,9)                  1.4157         estimate D2E/DX2                !
 ! R16   R(8,15)                 1.4143         estimate D2E/DX2                !
 ! R17   R(9,10)                 1.4351         estimate D2E/DX2                !
 ! R18   R(9,11)                 1.4134         estimate D2E/DX2                !
 ! R19   R(10,21)                1.1008         estimate D2E/DX2                !
 ! R20   R(11,12)                1.1005         estimate D2E/DX2                !
 ! R21   R(11,13)                1.3799         estimate D2E/DX2                !
 ! R22   R(13,14)                1.4061         estimate D2E/DX2                !
 ! R23   R(13,22)                1.0997         estimate D2E/DX2                !
 ! R24   R(14,15)                1.3812         estimate D2E/DX2                !
 ! R25   R(14,23)                1.1001         estimate D2E/DX2                !
 ! R26   R(15,24)                1.0998         estimate D2E/DX2                !
 ! A1    A(2,1,6)              119.8017         estimate D2E/DX2                !
 ! A2    A(2,1,17)             120.5649         estimate D2E/DX2                !
 ! A3    A(6,1,17)             119.6335         estimate D2E/DX2                !
 ! A4    A(1,2,3)              120.5935         estimate D2E/DX2                !
 ! A5    A(1,2,18)             120.5287         estimate D2E/DX2                !
 ! A6    A(3,2,18)             118.8778         estimate D2E/DX2                !
 ! A7    A(2,3,4)              119.8847         estimate D2E/DX2                !
 ! A8    A(2,3,7)              120.2548         estimate D2E/DX2                !
 ! A9    A(4,3,7)              119.8604         estimate D2E/DX2                !
 ! A10   A(3,4,5)              118.3118         estimate D2E/DX2                !
 ! A11   A(3,4,8)              119.2625         estimate D2E/DX2                !
 ! A12   A(5,4,8)              122.4257         estimate D2E/DX2                !
 ! A13   A(4,5,6)              121.0112         estimate D2E/DX2                !
 ! A14   A(4,5,19)             119.9681         estimate D2E/DX2                !
 ! A15   A(6,5,19)             119.0207         estimate D2E/DX2                !
 ! A16   A(1,6,5)              120.3971         estimate D2E/DX2                !
 ! A17   A(1,6,20)             119.4411         estimate D2E/DX2                !
 ! A18   A(5,6,20)             120.1618         estimate D2E/DX2                !
 ! A19   A(3,7,10)             120.877          estimate D2E/DX2                !
 ! A20   A(3,7,16)             117.9141         estimate D2E/DX2                !
 ! A21   A(10,7,16)            121.2089         estimate D2E/DX2                !
 ! A22   A(4,8,9)              119.2615         estimate D2E/DX2                !
 ! A23   A(4,8,15)             122.4269         estimate D2E/DX2                !
 ! A24   A(9,8,15)             118.3116         estimate D2E/DX2                !
 ! A25   A(8,9,10)             119.8622         estimate D2E/DX2                !
 ! A26   A(8,9,11)             119.8889         estimate D2E/DX2                !
 ! A27   A(10,9,11)            120.2488         estimate D2E/DX2                !
 ! A28   A(7,10,9)             120.8763         estimate D2E/DX2                !
 ! A29   A(7,10,21)            121.1906         estimate D2E/DX2                !
 ! A30   A(9,10,21)            117.933          estimate D2E/DX2                !
 ! A31   A(9,11,12)            118.8921         estimate D2E/DX2                !
 ! A32   A(9,11,13)            120.5879         estimate D2E/DX2                !
 ! A33   A(12,11,13)           120.52           estimate D2E/DX2                !
 ! A34   A(11,13,14)           119.8028         estimate D2E/DX2                !
 ! A35   A(11,13,22)           120.5637         estimate D2E/DX2                !
 ! A36   A(14,13,22)           119.6336         estimate D2E/DX2                !
 ! A37   A(13,14,15)           120.4014         estimate D2E/DX2                !
 ! A38   A(13,14,23)           119.4262         estimate D2E/DX2                !
 ! A39   A(15,14,23)           120.1724         estimate D2E/DX2                !
 ! A40   A(8,15,14)            121.0074         estimate D2E/DX2                !
 ! A41   A(8,15,24)            119.9598         estimate D2E/DX2                !
 ! A42   A(14,15,24)           119.0328         estimate D2E/DX2                !
 ! D1    D(6,1,2,3)             -0.0466         estimate D2E/DX2                !
 ! D2    D(6,1,2,18)           179.9961         estimate D2E/DX2                !
 ! D3    D(17,1,2,3)           179.9483         estimate D2E/DX2                !
 ! D4    D(17,1,2,18)           -0.009          estimate D2E/DX2                !
 ! D5    D(2,1,6,5)             -0.0246         estimate D2E/DX2                !
 ! D6    D(2,1,6,20)           179.9838         estimate D2E/DX2                !
 ! D7    D(17,1,6,5)           179.9804         estimate D2E/DX2                !
 ! D8    D(17,1,6,20)           -0.0112         estimate D2E/DX2                !
 ! D9    D(1,2,3,4)              0.0966         estimate D2E/DX2                !
 ! D10   D(1,2,3,7)           -179.9223         estimate D2E/DX2                !
 ! D11   D(18,2,3,4)          -179.9454         estimate D2E/DX2                !
 ! D12   D(18,2,3,7)             0.0357         estimate D2E/DX2                !
 ! D13   D(2,3,4,5)             -0.0745         estimate D2E/DX2                !
 ! D14   D(2,3,4,8)            179.932          estimate D2E/DX2                !
 ! D15   D(7,3,4,5)            179.9444         estimate D2E/DX2                !
 ! D16   D(7,3,4,8)             -0.0491         estimate D2E/DX2                !
 ! D17   D(2,3,7,10)          -179.9837         estimate D2E/DX2                !
 ! D18   D(2,3,7,16)             0.0328         estimate D2E/DX2                !
 ! D19   D(4,3,7,10)            -0.0026         estimate D2E/DX2                !
 ! D20   D(4,3,7,16)          -179.9861         estimate D2E/DX2                !
 ! D21   D(3,4,5,6)              0.0043         estimate D2E/DX2                !
 ! D22   D(3,4,5,19)          -179.9826         estimate D2E/DX2                !
 ! D23   D(8,4,5,6)            179.9976         estimate D2E/DX2                !
 ! D24   D(8,4,5,19)             0.0107         estimate D2E/DX2                !
 ! D25   D(3,4,8,9)              0.0536         estimate D2E/DX2                !
 ! D26   D(3,4,8,15)          -179.9273         estimate D2E/DX2                !
 ! D27   D(5,4,8,9)           -179.9397         estimate D2E/DX2                !
 ! D28   D(5,4,8,15)             0.0794         estimate D2E/DX2                !
 ! D29   D(4,5,6,1)              0.0457         estimate D2E/DX2                !
 ! D30   D(4,5,6,20)          -179.9627         estimate D2E/DX2                !
 ! D31   D(19,5,6,1)          -179.9672         estimate D2E/DX2                !
 ! D32   D(19,5,6,20)            0.0243         estimate D2E/DX2                !
 ! D33   D(3,7,10,9)             0.0499         estimate D2E/DX2                !
 ! D34   D(3,7,10,21)         -179.9789         estimate D2E/DX2                !
 ! D35   D(16,7,10,9)         -179.9671         estimate D2E/DX2                !
 ! D36   D(16,7,10,21)           0.004          estimate D2E/DX2                !
 ! D37   D(4,8,9,10)            -0.0079         estimate D2E/DX2                !
 ! D38   D(4,8,9,11)          -179.9845         estimate D2E/DX2                !
 ! D39   D(15,8,9,10)          179.9738         estimate D2E/DX2                !
 ! D40   D(15,8,9,11)           -0.0028         estimate D2E/DX2                !
 ! D41   D(4,8,15,14)          179.9713         estimate D2E/DX2                !
 ! D42   D(4,8,15,24)           -0.0095         estimate D2E/DX2                !
 ! D43   D(9,8,15,14)           -0.0098         estimate D2E/DX2                !
 ! D44   D(9,8,15,24)         -179.9906         estimate D2E/DX2                !
 ! D45   D(8,9,10,7)            -0.0445         estimate D2E/DX2                !
 ! D46   D(8,9,10,21)          179.9834         estimate D2E/DX2                !
 ! D47   D(11,9,10,7)          179.932          estimate D2E/DX2                !
 ! D48   D(11,9,10,21)          -0.04           estimate D2E/DX2                !
 ! D49   D(8,9,11,12)          179.9979         estimate D2E/DX2                !
 ! D50   D(8,9,11,13)            0.0106         estimate D2E/DX2                !
 ! D51   D(10,9,11,12)           0.0213         estimate D2E/DX2                !
 ! D52   D(10,9,11,13)        -179.9659         estimate D2E/DX2                !
 ! D53   D(9,11,13,14)          -0.0058         estimate D2E/DX2                !
 ! D54   D(9,11,13,22)         179.9929         estimate D2E/DX2                !
 ! D55   D(12,11,13,14)       -179.9929         estimate D2E/DX2                !
 ! D56   D(12,11,13,22)          0.0059         estimate D2E/DX2                !
 ! D57   D(11,13,14,15)         -0.0069         estimate D2E/DX2                !
 ! D58   D(11,13,14,23)        179.9972         estimate D2E/DX2                !
 ! D59   D(22,13,14,15)        179.9943         estimate D2E/DX2                !
 ! D60   D(22,13,14,23)         -0.0016         estimate D2E/DX2                !
 ! D61   D(13,14,15,8)           0.0148         estimate D2E/DX2                !
 ! D62   D(13,14,15,24)        179.9958         estimate D2E/DX2                !
 ! D63   D(23,14,15,8)        -179.9893         estimate D2E/DX2                !
 ! D64   D(23,14,15,24)         -0.0083         estimate D2E/DX2                !
 --------------------------------------------------------------------------------
 Trust Radius=3.00D-01 FncErr=1.00D-07 GrdErr=1.00D-06 EigMax=2.50D+02 EigMin=1.00D-04
 Number of steps in this run=    142 maximum allowed number of steps=    144.
 GradGradGradGradGradGradGradGradGradGradGradGradGradGradGradGradGradGrad

 Leave Link  103 at Wed Apr  3 12:21:16 2024, MaxMem= 33554432000 cpu:               0.4 elap:               0.0
 (Enter /apps/gaussian/g16-c01-avx2/g16/l202.exe)
                          Input orientation:                          
 ---------------------------------------------------------------------
 Center     Atomic      Atomic             Coordinates (Angstroms)
 Number     Number       Type             X           Y           Z
 ---------------------------------------------------------------------
      1          6           0       -5.045689   -5.199365   -0.003461
      2          6           0       -3.665798   -5.199365   -0.003461
      3          6           0       -2.946462   -3.982721   -0.003461
      4          6           0       -3.644051   -2.750825   -0.001391
      5          6           0       -5.058036   -2.780689   -0.000982
      6          6           0       -5.744498   -3.979258   -0.002469
      7          6           0       -1.511410   -3.991204   -0.005141
      8          6           0       -2.894619   -1.514138    0.000080
      9          6           0       -1.479772   -1.562413   -0.001737
     10          6           0       -0.808082   -2.830589   -0.004829
     11          6           0       -0.734043   -0.361702    0.000000
     12          1           0        0.364992   -0.418358   -0.001418
     13          6           0       -1.372661    0.861481    0.003681
     14          6           0       -2.777669    0.916287    0.005603
     15          6           0       -3.522534   -0.246840    0.003686
     16          1           0       -1.001824   -4.966973   -0.006966
     17          1           0       -5.604910   -6.146280   -0.004315
     18          1           0       -3.106779   -6.147306   -0.004167
     19          1           0       -5.627418   -1.839715    0.000322
     20          1           0       -6.844593   -3.986181   -0.002746
     21          1           0        0.292735   -2.831069   -0.006458
     22          1           0       -0.792053    1.795444    0.005148
     23          1           0       -3.280394    1.894811    0.008584
     24          1           0       -4.620193   -0.177735    0.005323
 ---------------------------------------------------------------------
                    Distance matrix (angstroms):
                    1          2          3          4          5
     1  C    0.000000
     2  C    1.379891   0.000000
     3  C    2.426309   1.413388   0.000000
     4  C    2.821337   2.448637   1.415699   0.000000
     5  C    2.418709   2.790757   2.429739   1.414300   0.000000
     6  C    1.406057   2.410323   2.798038   2.433295   1.381231
     7  C    3.735075   2.470029   1.435078   2.467126   3.747522
     8  C    4.267085   3.765053   2.469130   1.446045   2.506896
     9  C    5.093445   4.243363   2.830031   2.469094   3.779970
    10  C    4.854731   3.711825   2.429008   2.837093   4.250249
    11  C    6.480223   5.656694   4.243417   3.765111   4.954636
    12  H    7.220353   6.253423   4.865225   4.638192   5.915221
    13  C    7.086963   6.480153   5.093446   4.267082   5.181449
    14  C    6.522668   6.179810   4.901923   3.768073   4.343702
    15  C    5.181463   4.954602   3.780042   2.506937   2.962799
    16  H    4.050539   2.674093   2.179537   3.448580   4.607899
    17  H    1.099717   2.157963   3.427584   3.920981   3.409734
    18  H    2.158232   1.100498   2.170514   3.438714   3.891211
    19  H    3.409644   3.890400   3.432203   2.182629   1.099832
    20  H    2.169763   3.402433   3.898133   3.430681   2.155226
    21  H    5.840172   4.612897   3.437835   3.937607   5.351011
    22  H    8.186626   7.562132   6.166745   5.366796   6.256168
    23  H    7.310523   7.104647   5.887023   4.659858   5.002040
    24  H    5.039632   5.111528   4.156846   2.752034   2.639529
                    6          7          8          9         10
     6  C    0.000000
     7  C    4.233106   0.000000
     8  C    3.768107   2.837102   0.000000
     9  C    4.901941   2.428999   1.415672   0.000000
    10  C    5.068298   1.357092   2.467125   1.435077   0.000000
    11  C    6.179917   3.711820   2.448713   1.413443   2.470002
    12  H    7.071483   4.035607   3.438866   2.170718   2.682345
    13  C    6.522710   4.854676   2.821336   2.426265   3.734997
    14  C    5.724378   5.068234   2.433243   2.797954   4.233020
    15  C    4.343743   4.250289   1.414332   2.429740   3.747543
    16  H    4.844436   1.100821   3.937612   3.437949   2.145152
    17  H    2.171514   4.626132   5.366790   6.166734   5.831241
    18  H    3.414381   2.682159   4.638025   4.865018   4.035421
    19  H    2.142746   4.644401   2.752125   4.156906   4.920148
    20  H    1.100117   5.333186   4.659753   5.886931   6.146126
    21  H    6.145448   2.144960   3.448706   2.179746   1.100818
    22  H    7.607493   5.831198   3.920987   3.427566   4.626072
    23  H    6.369978   6.146110   3.430718   3.898044   5.333096
    24  H    3.964303   4.920080   2.182569   3.432146   4.644344
                   11         12         13         14         15
    11  C    0.000000
    12  H    1.100495   0.000000
    13  C    1.379863   2.158113   0.000000
    14  C    2.410331   3.414329   1.406078   0.000000
    15  C    2.790858   3.891311   2.418745   1.381192   0.000000
    16  H    4.613055   4.749538   5.840249   6.145448   5.351051
    17  H    7.562189   8.273381   8.186618   7.607447   6.256177
    18  H    6.253248   6.698809   7.220133   7.071263   5.915100
    19  H    5.111716   6.158672   5.039785   3.964422   2.639659
    20  H    7.104624   8.044096   7.310397   6.369783   5.001878
    21  H    2.674339   2.413798   4.050750   4.844606   4.608104
    22  H    2.157932   2.497942   1.099725   2.171540   3.409758
    23  H    3.402327   4.317371   2.169618   1.100114   2.155302
    24  H    3.890506   4.990993   3.409756   2.142844   1.099833
                   16         17         18         19         20
    16  H    0.000000
    17  H    4.751755   0.000000
    18  H    2.413303   2.498131   0.000000
    19  H    5.583540   4.306626   4.990890   0.000000
    20  H    5.924519   2.490551   4.317605   2.467558   0.000000
    21  H    2.497593   6.765563   4.749119   6.002586   7.230197
    22  H    6.765681   9.286262   8.273169   6.049393   8.370214
    23  H    7.230228   8.370346   8.044001   4.410813   6.876751
    24  H    6.002462   6.049239   6.158432   1.943375   4.410474
                   21         22         23         24
    21  H    0.000000
    22  H    4.752002   0.000000
    23  H    5.924645   2.490327   0.000000
    24  H    5.583653   4.306750   2.467898   0.000000
 Stoichiometry    C14H10(1+,2)
 Framework group  C1[X(C14H10)]
 Deg. of freedom    66
 Full point group                 C1      NOp   1
 Largest Abelian subgroup         C1      NOp   1
 Largest concise Abelian subgroup C1      NOp   1
                         Standard orientation:                         
 ---------------------------------------------------------------------
 Center     Atomic      Atomic             Coordinates (Angstroms)
 Number     Number       Type             X           Y           Z
 ---------------------------------------------------------------------
      1          6           0        3.543491   -0.301146    0.000604
      2          6           0        2.828319    0.878950    0.001839
      3          6           0        1.415015    0.863571    0.000374
      4          6           0        0.723031   -0.371483   -0.000315
      5          6           0        1.481413   -1.565260   -0.001120
      6          6           0        2.862222   -1.531132   -0.001144
      7          6           0        0.678510    2.095241   -0.000007
      8          6           0       -0.723014   -0.371514   -0.000317
      9          6           0       -1.415016    0.863500   -0.000784
     10          6           0       -0.678581    2.095210   -0.001078
     11          6           0       -2.828375    0.878947   -0.000461
     12          1           0       -3.349530    1.848219   -0.000798
     13          6           0       -3.543472   -0.301162    0.000529
     14          6           0       -2.862155   -1.531146    0.001098
     15          6           0       -1.481386   -1.565334    0.000531
     16          1           0        1.248890    3.036768    0.000315
     17          1           0        4.643136   -0.288629    0.000891
     18          1           0        3.349278    1.848328    0.003276
     19          1           0        0.971782   -2.539890   -0.001956
     20          1           0        3.438302   -2.468356   -0.002393
     21          1           0       -1.248702    3.036891   -0.001721
     22          1           0       -4.643126   -0.288677    0.000896
     23          1           0       -3.438448   -2.468235    0.001934
     24          1           0       -0.971591   -2.539881    0.001066
 ---------------------------------------------------------------------
 Rotational constants (GHZ):           1.6131996           0.5558416           0.4134009
 Leave Link  202 at Wed Apr  3 12:21:17 2024, MaxMem= 33554432000 cpu:               0.9 elap:               0.1
 (Enter /apps/gaussian/g16-c01-avx2/g16/l301.exe)
 Standard basis: def2TZVP (5D, 7F)
 Ernie: Thresh=  0.10000D-02 Tol=  0.10000D-05 Strict=F.
 There are   564 symmetry adapted cartesian basis functions of A   symmetry.
 There are   494 symmetry adapted basis functions of A   symmetry.
   494 basis functions,   794 primitive gaussians,   564 cartesian basis functions
    47 alpha electrons       46 beta electrons
       nuclear repulsion energy       775.9882839826 Hartrees.
 IExCor=  402 DFT=T Ex+Corr=B3LYP ExCW=0 ScaHFX=  0.200000
 ScaDFX=  0.800000  0.720000  1.000000  0.810000 ScalE2=  1.000000  1.000000
 IRadAn=      5 IRanWt=     -1 IRanGd=            0 ICorTp=0 IEmpDi=  4
 NAtoms=   24 NActive=   24 NUniq=   24 SFac= 1.00D+00 NAtFMM=   60 NAOKFM=F Big=F
 Integral buffers will be    131072 words long.
 Raffenetti 2 integral format.
 Two-electron integral symmetry is turned on.
 Leave Link  301 at Wed Apr  3 12:21:17 2024, MaxMem= 33554432000 cpu:               0.9 elap:               0.1
 (Enter /apps/gaussian/g16-c01-avx2/g16/l302.exe)
 NPDir=0 NMtPBC=     1 NCelOv=     1 NCel=       1 NClECP=     1 NCelD=      1
         NCelK=      1 NCelE2=     1 NClLst=     1 CellRange=     0.0.
 One-electron integrals computed using PRISM.
 One-electron integral symmetry used in STVInt
   1 Symmetry operations used in ECPInt.
 ECPInt:  NShTT=   18915 NPrTT=   58308 LenC2=   17798 LenP2D=   41468.
 LDataN:  DoStor=T MaxTD1= 6 Len=  172
 NBasis=   494 RedAO= T EigKep=  4.40D-06  NBF=   494
 NBsUse=   494 1.00D-06 EigRej= -1.00D+00 NBFU=   494
 Precomputing XC quadrature grid using
 IXCGrd= 4 IRadAn=           5 IRanWt=          -1 IRanGd=           0 AccXCQ= 0.00D+00.
 Generated NRdTot=       0 NPtTot=           0 NUsed=           0 NTot=          32
 NSgBfM=   559   559   559   559   559 MxSgAt=    24 MxSgA2=    24.
 Leave Link  302 at Wed Apr  3 12:21:18 2024, MaxMem= 33554432000 cpu:              14.0 elap:               0.5
 (Enter /apps/gaussian/g16-c01-avx2/g16/l303.exe)
 DipDrv:  MaxL=1.
 Leave Link  303 at Wed Apr  3 12:21:19 2024, MaxMem= 33554432000 cpu:               2.1 elap:               0.1
 (Enter /apps/gaussian/g16-c01-avx2/g16/l401.exe)
 ExpMin= 9.52D-02 ExpMax= 1.36D+04 ExpMxC= 4.63D+02 IAcc=3 IRadAn=         5 AccDes= 0.00D+00
 Harris functional with IExCor=  402 and IRadAn=       5 diagonalized for initial guess.
 HarFok:  IExCor=  402 AccDes= 0.00D+00 IRadAn=         5 IDoV= 1 UseB2=F ITyADJ=14
 ICtDFT=  3500011 ScaDFX=  1.000000  1.000000  1.000000  1.000000
 FoFCou: FMM=F IPFlag=           0 FMFlag=      100000 FMFlg1=           0
         NFxFlg=           0 DoJE=T BraDBF=F KetDBF=T FulRan=T
         wScrn=  0.000000 ICntrl=       500 IOpCl=  0 I1Cent=   200000004 NGrid=           0
         NMat0=    1 NMatS0=      1 NMatT0=    0 NMatD0=    1 NMtDS0=    0 NMtDT0=    0
 Petite list used in FoFCou.
 Harris En= -539.458325611648    
 JPrj=0 DoOrth=F DoCkMO=F.
 Initial guess <Sx>= 0.0000 <Sy>= 0.0000 <Sz>= 0.5000 <S**2>= 0.7500 S= 0.5000
 Leave Link  401 at Wed Apr  3 12:21:20 2024, MaxMem= 33554432000 cpu:              38.7 elap:               1.3
 (Enter /apps/gaussian/g16-c01-avx2/g16/l502.exe)
 Integral symmetry usage will be decided dynamically.
 UHF open shell SCF:
 Using DIIS extrapolation, IDIIS=  1040.
 NGot= 33554432000 LenX= 33553772274 LenY= 33553453614
 Requested convergence on RMS density matrix=1.00D-08 within 128 cycles.
 Requested convergence on MAX density matrix=1.00D-06.
 Requested convergence on             energy=1.00D-06.
 No special actions if energy rises.
 Fock matrices will be formed incrementally for  20 cycles.
 Integral accuracy reduced to 1.0D-05 until final iterations.

 Cycle   1  Pass 0  IDiag  1:
 FoFJK:  IHMeth= 1 ICntrl=       0 DoSepK=F KAlg= 0 I1Cent=           0 FoldK=F
 IRaf= 890000000 NMat=       1 IRICut=       1 DoRegI=T DoRafI=F ISym2E= 0 IDoP0=0 IntGTp=1.
 FoFCou: FMM=F IPFlag=           0 FMFlag=      100000 FMFlg1=           0
         NFxFlg=           0 DoJE=F BraDBF=F KetDBF=F FulRan=T
         wScrn=  0.000000 ICntrl=         0 IOpCl=  1 I1Cent=           0 NGrid=           0
         NMat0=    1 NMatS0=      1 NMatT0=    0 NMatD0=    1 NMtDS0=    0 NMtDT0=    0
 Symmetry not used in FoFCou.
 E= -539.222739597146    
 DIIS: error= 2.52D-02 at cycle   1 NSaved=   1.
 NSaved= 1 IEnMin= 1 EnMin= -539.222739597146     IErMin= 1 ErrMin= 2.52D-02
 ErrMax= 2.52D-02  0.00D+00 EMaxC= 1.00D-01 BMatC= 9.34D-01 BMatP= 9.34D-01
 IDIUse=3 WtCom= 7.48D-01 WtEn= 2.52D-01
 Coeff-Com:  0.100D+01
 Coeff-En:   0.100D+01
 Coeff:      0.100D+01
 Gap=     0.177 Goal=   None    Shift=    0.000
 Gap=     0.031 Goal=   None    Shift=    0.000
 GapD=    0.031 DampG=0.250 DampE=0.500 DampFc=0.2500 IDamp=-1.
 Damping current iteration by 2.50D-01
 RMSDP=2.55D-03 MaxDP=6.20D-02              OVMax= 1.72D-01

 Cycle   2  Pass 0  IDiag  1:
 RMSU=  6.15D-04    CP:  9.77D-01
 E= -539.299418403535     Delta-E=       -0.076678806389 Rises=F Damp=T
 DIIS: error= 1.53D-02 at cycle   2 NSaved=   2.
 NSaved= 2 IEnMin= 2 EnMin= -539.299418403535     IErMin= 2 ErrMin= 1.53D-02
 ErrMax= 1.53D-02  0.00D+00 EMaxC= 1.00D-01 BMatC= 3.13D-01 BMatP= 9.34D-01
 IDIUse=3 WtCom= 8.47D-01 WtEn= 1.53D-01
 Coeff-Com: -0.112D+01 0.212D+01
 Coeff-En:   0.000D+00 0.100D+01
 Coeff:     -0.952D+00 0.195D+01
 Gap=     0.189 Goal=   None    Shift=    0.000
 Gap=     0.052 Goal=   None    Shift=    0.000
 RMSDP=1.47D-03 MaxDP=3.25D-02 DE=-7.67D-02 OVMax= 1.73D-01

 Cycle   3  Pass 0  IDiag  1:
 RMSU=  9.53D-04    CP:  9.35D-01  2.75D+00
 E= -539.427645613406     Delta-E=       -0.128227209871 Rises=F Damp=F
 DIIS: error= 1.55D-02 at cycle   3 NSaved=   3.
 NSaved= 3 IEnMin= 3 EnMin= -539.427645613406     IErMin= 2 ErrMin= 1.53D-02
 ErrMax= 1.55D-02  0.00D+00 EMaxC= 1.00D-01 BMatC= 6.22D-02 BMatP= 3.13D-01
 IDIUse=3 WtCom= 8.45D-01 WtEn= 1.55D-01
 Coeff-Com: -0.605D+00 0.107D+01 0.534D+00
 Coeff-En:   0.000D+00 0.000D+00 0.100D+01
 Coeff:     -0.511D+00 0.904D+00 0.607D+00
 Gap=     0.181 Goal=   None    Shift=    0.000
 Gap=     0.038 Goal=   None    Shift=    0.000
 RMSDP=4.31D-04 MaxDP=1.70D-02 DE=-1.28D-01 OVMax= 1.58D-01

 Cycle   4  Pass 0  IDiag  1:
 RMSU=  4.26D-04    CP:  9.38D-01  2.76D+00  1.06D+00
 E= -539.431909632646     Delta-E=       -0.004264019241 Rises=F Damp=F
 DIIS: error= 1.48D-02 at cycle   4 NSaved=   4.
 NSaved= 4 IEnMin= 4 EnMin= -539.431909632646     IErMin= 4 ErrMin= 1.48D-02
 ErrMax= 1.48D-02  0.00D+00 EMaxC= 1.00D-01 BMatC= 4.45D-02 BMatP= 6.22D-02
 IDIUse=3 WtCom= 8.52D-01 WtEn= 1.48D-01
 Coeff-Com: -0.177D+00 0.297D+00 0.448D+00 0.432D+00
 Coeff-En:   0.000D+00 0.000D+00 0.450D+00 0.550D+00
 Coeff:     -0.151D+00 0.253D+00 0.448D+00 0.450D+00
 Gap=     0.173 Goal=   None    Shift=    0.000
 Gap=     0.046 Goal=   None    Shift=    0.000
 RMSDP=2.66D-04 MaxDP=8.72D-03 DE=-4.26D-03 OVMax= 8.33D-02

 Cycle   5  Pass 0  IDiag  1:
 RMSU=  2.32D-04    CP:  9.36D-01  2.87D+00  1.15D+00  8.11D-01
 E= -539.445517969417     Delta-E=       -0.013608336770 Rises=F Damp=F
 DIIS: error= 1.53D-03 at cycle   5 NSaved=   5.
 NSaved= 5 IEnMin= 5 EnMin= -539.445517969417     IErMin= 5 ErrMin= 1.53D-03
 ErrMax= 1.53D-03  0.00D+00 EMaxC= 1.00D-01 BMatC= 9.06D-04 BMatP= 4.45D-02
 IDIUse=3 WtCom= 9.85D-01 WtEn= 1.53D-02
 Coeff-Com: -0.299D-01 0.471D-01 0.165D+00 0.214D+00 0.604D+00
 Coeff-En:   0.000D+00 0.000D+00 0.000D+00 0.000D+00 0.100D+01
 Coeff:     -0.294D-01 0.464D-01 0.163D+00 0.211D+00 0.610D+00
 Gap=     0.172 Goal=   None    Shift=    0.000
 Gap=     0.047 Goal=   None    Shift=    0.000
 RMSDP=1.55D-04 MaxDP=4.57D-03 DE=-1.36D-02 OVMax= 9.06D-03

 Cycle   6  Pass 0  IDiag  1:
 RMSU=  1.06D-04    CP:  9.35D-01  2.98D+00  1.15D+00  8.53D-01  1.38D+00
 E= -539.445717616364     Delta-E=       -0.000199646947 Rises=F Damp=F
 DIIS: error= 6.54D-04 at cycle   6 NSaved=   6.
 NSaved= 6 IEnMin= 6 EnMin= -539.445717616364     IErMin= 6 ErrMin= 6.54D-04
 ErrMax= 6.54D-04  0.00D+00 EMaxC= 1.00D-01 BMatC= 2.70D-04 BMatP= 9.06D-04
 IDIUse=3 WtCom= 9.93D-01 WtEn= 6.54D-03
 Coeff-Com:  0.408D-03-0.256D-02 0.557D-01 0.896D-01 0.398D+00 0.459D+00
 Coeff-En:   0.000D+00 0.000D+00 0.000D+00 0.000D+00 0.190D+00 0.810D+00
 Coeff:      0.406D-03-0.254D-02 0.553D-01 0.890D-01 0.397D+00 0.461D+00
 Gap=     0.172 Goal=   None    Shift=    0.000
 Gap=     0.047 Goal=   None    Shift=    0.000
 RMSDP=1.02D-04 MaxDP=2.69D-03 DE=-2.00D-04 OVMax= 4.46D-03

 Cycle   7  Pass 0  IDiag  1:
 RMSU=  5.16D-05    CP:  9.36D-01  3.00D+00  1.19D+00  9.18D-01  1.67D+00
                    CP:  1.27D+00
 E= -539.445798155702     Delta-E=       -0.000080539338 Rises=F Damp=F
 DIIS: error= 1.82D-04 at cycle   7 NSaved=   7.
 NSaved= 7 IEnMin= 7 EnMin= -539.445798155702     IErMin= 7 ErrMin= 1.82D-04
 ErrMax= 1.82D-04  0.00D+00 EMaxC= 1.00D-01 BMatC= 1.61D-05 BMatP= 2.70D-04
 IDIUse=3 WtCom= 9.98D-01 WtEn= 1.82D-03
 Coeff-Com:  0.492D-02-0.839D-02-0.382D-02 0.186D-02 0.527D-01 0.167D+00
 Coeff-Com:  0.785D+00
 Coeff-En:   0.000D+00 0.000D+00 0.000D+00 0.000D+00 0.000D+00 0.000D+00
 Coeff-En:   0.100D+01
 Coeff:      0.491D-02-0.837D-02-0.381D-02 0.186D-02 0.526D-01 0.167D+00
 Coeff:      0.786D+00
 Gap=     0.171 Goal=   None    Shift=    0.000
 Gap=     0.047 Goal=   None    Shift=    0.000
 RMSDP=1.25D-04 MaxDP=3.77D-03 DE=-8.05D-05 OVMax= 2.02D-03

 Cycle   8  Pass 0  IDiag  1:
 RMSU=  5.65D-05    CP:  9.36D-01  3.00D+00  1.22D+00  9.65D-01  1.98D+00
                    CP:  1.73D+00  2.21D+00
 E= -539.445809872318     Delta-E=       -0.000011716616 Rises=F Damp=F
 DIIS: error= 1.25D-04 at cycle   8 NSaved=   8.
 NSaved= 8 IEnMin= 8 EnMin= -539.445809872318     IErMin= 8 ErrMin= 1.25D-04
 ErrMax= 1.25D-04  0.00D+00 EMaxC= 1.00D-01 BMatC= 1.09D-05 BMatP= 1.61D-05
 IDIUse=3 WtCom= 9.99D-01 WtEn= 1.25D-03
 Coeff-Com:  0.272D-02-0.401D-02-0.205D-01-0.274D-01-0.929D-01-0.356D-01
 Coeff-Com:  0.539D+00 0.638D+00
 Coeff-En:   0.000D+00 0.000D+00 0.000D+00 0.000D+00 0.000D+00 0.000D+00
 Coeff-En:   0.000D+00 0.100D+01
 Coeff:      0.271D-02-0.401D-02-0.204D-01-0.274D-01-0.928D-01-0.356D-01
 Coeff:      0.539D+00 0.639D+00
 Gap=     0.171 Goal=   None    Shift=    0.000
 Gap=     0.047 Goal=   None    Shift=    0.000
 RMSDP=1.47D-04 MaxDP=3.87D-03 DE=-1.17D-05 OVMax= 1.32D-03

 Cycle   9  Pass 0  IDiag  1:
 RMSU=  4.68D-05    CP:  9.35D-01  3.00D+00  1.25D+00  9.86D-01  2.24D+00
                    CP:  2.24D+00  3.00D+00  2.62D+00
 E= -539.445821526000     Delta-E=       -0.000011653682 Rises=F Damp=F
 DIIS: error= 7.88D-05 at cycle   9 NSaved=   9.
 NSaved= 9 IEnMin= 9 EnMin= -539.445821526000     IErMin= 9 ErrMin= 7.88D-05
 ErrMax= 7.88D-05  0.00D+00 EMaxC= 1.00D-01 BMatC= 3.16D-06 BMatP= 1.09D-05
 IDIUse=1 WtCom= 1.00D+00 WtEn= 0.00D+00
 Coeff-Com:  0.267D-03-0.222D-03-0.954D-02-0.140D-01-0.580D-01-0.594D-01
 Coeff-Com:  0.825D-01 0.326D+00 0.732D+00
 Coeff:      0.267D-03-0.222D-03-0.954D-02-0.140D-01-0.580D-01-0.594D-01
 Coeff:      0.825D-01 0.326D+00 0.732D+00
 Gap=     0.171 Goal=   None    Shift=    0.000
 Gap=     0.048 Goal=   None    Shift=    0.000
 RMSDP=2.22D-04 MaxDP=6.87D-03 DE=-1.17D-05 OVMax= 7.89D-04

 Cycle  10  Pass 0  IDiag  1:
 RMSU=  1.15D-04    CP:  9.35D-01  3.00D+00  1.30D+00  1.04D+00  2.64D+00
                    CP:  2.96D+00  3.00D+00  3.00D+00  3.00D+00
 E= -539.445832045594     Delta-E=       -0.000010519594 Rises=F Damp=F
 DIIS: error= 7.26D-05 at cycle  10 NSaved=  10.
 NSaved=10 IEnMin=10 EnMin= -539.445832045594     IErMin=10 ErrMin= 7.26D-05
 ErrMax= 7.26D-05  0.00D+00 EMaxC= 1.00D-01 BMatC= 1.95D-06 BMatP= 3.16D-06
 IDIUse=1 WtCom= 1.00D+00 WtEn= 0.00D+00
 Coeff-Com: -0.215D-03 0.445D-03-0.354D-02-0.547D-02-0.244D-01-0.322D-01
 Coeff-Com: -0.135D-01 0.901D-01 0.360D+00 0.629D+00
 Coeff:     -0.215D-03 0.445D-03-0.354D-02-0.547D-02-0.244D-01-0.322D-01
 Coeff:     -0.135D-01 0.901D-01 0.360D+00 0.629D+00
 Gap=     0.171 Goal=   None    Shift=    0.000
 Gap=     0.048 Goal=   None    Shift=    0.000
 RMSDP=1.97D-04 MaxDP=6.71D-03 DE=-1.05D-05 OVMax= 4.16D-04

 Cycle  11  Pass 0  IDiag  1:
 RMSU=  1.17D-04    CP:  9.36D-01  3.00D+00  1.34D+00  1.08D+00  3.00D+00
                    CP:  3.00D+00  3.00D+00  3.00D+00  3.00D+00  1.96D+00
 E= -539.445835740821     Delta-E=       -0.000003695227 Rises=F Damp=F
 DIIS: error= 4.91D-05 at cycle  11 NSaved=  11.
 NSaved=11 IEnMin=11 EnMin= -539.445835740821     IErMin=11 ErrMin= 4.91D-05
 ErrMax= 4.91D-05  0.00D+00 EMaxC= 1.00D-01 BMatC= 1.41D-06 BMatP= 1.95D-06
 IDIUse=1 WtCom= 1.00D+00 WtEn= 0.00D+00
 Coeff-Com:  0.114D-03-0.113D-03-0.248D-02-0.359D-02-0.144D-01-0.147D-01
 Coeff-Com:  0.249D-01 0.509D-01 0.335D-01 0.210D+00 0.715D+00
 Coeff:      0.114D-03-0.113D-03-0.248D-02-0.359D-02-0.144D-01-0.147D-01
 Coeff:      0.249D-01 0.509D-01 0.335D-01 0.210D+00 0.715D+00
 Gap=     0.171 Goal=   None    Shift=    0.000
 Gap=     0.048 Goal=   None    Shift=    0.000
 RMSDP=1.57D-04 MaxDP=5.11D-03 DE=-3.70D-06 OVMax= 1.96D-04

 Cycle  12  Pass 0  IDiag  1:
 RMSU=  9.51D-05    CP:  9.37D-01  3.00D+00  1.36D+00  1.14D+00  3.00D+00
                    CP:  3.00D+00  3.00D+00  3.00D+00  3.00D+00  2.46D+00
                    CP:  1.91D+00
 E= -539.445839456872     Delta-E=       -0.000003716051 Rises=F Damp=F
 DIIS: error= 6.63D-05 at cycle  12 NSaved=  12.
 NSaved=12 IEnMin=12 EnMin= -539.445839456872     IErMin=11 ErrMin= 4.91D-05
 ErrMax= 6.63D-05  0.00D+00 EMaxC= 1.00D-01 BMatC= 1.53D-06 BMatP= 1.41D-06
 IDIUse=1 WtCom= 1.00D+00 WtEn= 0.00D+00
 Coeff-Com:  0.116D-03-0.114D-03-0.253D-02-0.365D-02-0.146D-01-0.149D-01
 Coeff-Com:  0.254D-01 0.571D-01 0.504D-01 0.142D+00 0.579D+00 0.181D+00
 Coeff:      0.116D-03-0.114D-03-0.253D-02-0.365D-02-0.146D-01-0.149D-01
 Coeff:      0.254D-01 0.571D-01 0.504D-01 0.142D+00 0.579D+00 0.181D+00
 Gap=     0.171 Goal=   None    Shift=    0.000
 Gap=     0.048 Goal=   None    Shift=    0.000
 RMSDP=3.30D-05 MaxDP=9.69D-04 DE=-3.72D-06 OVMax= 2.05D-05

 Cycle  13  Pass 0  IDiag  1:
 RMSU=  1.06D-05    CP:  9.37D-01  3.00D+00  1.37D+00  1.15D+00  3.00D+00
                    CP:  3.00D+00  3.00D+00  3.00D+00  3.00D+00  2.55D+00
                    CP:  2.05D+00  1.25D+00
 E= -539.445840135103     Delta-E=       -0.000000678231 Rises=F Damp=F
 DIIS: error= 7.46D-05 at cycle  13 NSaved=  13.
 NSaved=13 IEnMin=13 EnMin= -539.445840135103     IErMin=11 ErrMin= 4.91D-05
 ErrMax= 7.46D-05  0.00D+00 EMaxC= 1.00D-01 BMatC= 1.71D-06 BMatP= 1.41D-06
 IDIUse=1 WtCom= 1.00D+00 WtEn= 0.00D+00
 Coeff-Com:  0.550D-04-0.115D-04-0.248D-02-0.364D-02-0.150D-01-0.165D-01
 Coeff-Com:  0.189D-01 0.630D-01 0.862D-01 0.806D-01 0.467D+00 0.128D+01
 Coeff-Com: -0.956D+00
 Coeff:      0.550D-04-0.115D-04-0.248D-02-0.364D-02-0.150D-01-0.165D-01
 Coeff:      0.189D-01 0.630D-01 0.862D-01 0.806D-01 0.467D+00 0.128D+01
 Coeff:     -0.956D+00
 Gap=     0.171 Goal=   None    Shift=    0.000
 Gap=     0.048 Goal=   None    Shift=    0.000
 RMSDP=3.95D-05 MaxDP=1.01D-03 DE=-6.78D-07 OVMax= 2.55D-05

 Cycle  14  Pass 0  IDiag  1:
 RMSU=  2.69D-05    CP:  9.38D-01  3.00D+00  1.38D+00  1.17D+00  3.00D+00
                    CP:  3.00D+00  3.00D+00  3.00D+00  3.00D+00  2.47D+00
                    CP:  1.88D+00  1.19D+00  5.49D-01
 E= -539.445841983954     Delta-E=       -0.000001848851 Rises=F Damp=F
 DIIS: error= 5.13D-05 at cycle  14 NSaved=  14.
 NSaved=14 IEnMin=14 EnMin= -539.445841983954     IErMin=11 ErrMin= 4.91D-05
 ErrMax= 5.13D-05  0.00D+00 EMaxC= 1.00D-01 BMatC= 1.41D-06 BMatP= 1.41D-06
 IDIUse=1 WtCom= 1.00D+00 WtEn= 0.00D+00
 Coeff-Com: -0.132D-03 0.307D-03-0.242D-02-0.378D-02-0.169D-01-0.210D-01
 Coeff-Com:  0.609D-02 0.921D-01 0.217D+00-0.144D+00-0.112D+00 0.252D+01
 Coeff-Com: -0.306D+01 0.152D+01
 Coeff:     -0.132D-03 0.307D-03-0.242D-02-0.378D-02-0.169D-01-0.210D-01
 Coeff:      0.609D-02 0.921D-01 0.217D+00-0.144D+00-0.112D+00 0.252D+01
 Coeff:     -0.306D+01 0.152D+01
 Gap=     0.171 Goal=   None    Shift=    0.000
 Gap=     0.048 Goal=   None    Shift=    0.000
 RMSDP=7.22D-05 MaxDP=2.05D-03 DE=-1.85D-06 OVMax= 3.69D-05

 Cycle  15  Pass 0  IDiag  1:
 RMSU=  6.01D-05    CP:  9.38D-01  3.00D+00  1.38D+00  1.19D+00  3.00D+00
                    CP:  3.00D+00  3.00D+00  3.00D+00  3.00D+00  2.29D+00
                    CP:  1.94D+00  1.50D+00  1.99D+00  1.02D+00
 E= -539.445835995591     Delta-E=        0.000005988363 Rises=F Damp=F
 DIIS: error= 8.84D-05 at cycle  15 NSaved=  15.
 NSaved=15 IEnMin=14 EnMin= -539.445841983954     IErMin=11 ErrMin= 4.91D-05
 ErrMax= 8.84D-05  0.00D+00 EMaxC= 1.00D-01 BMatC= 1.81D-06 BMatP= 1.41D-06
 IDIUse=1 WtCom= 1.00D+00 WtEn= 0.00D+00
 Coeff-Com: -0.777D-04 0.160D-03-0.361D-03-0.612D-03-0.308D-02-0.433D-02
 Coeff-Com:  0.542D-02 0.256D-01 0.451D-01-0.240D+00 0.163D+00 0.523D+01
 Coeff-Com: -0.689D+01 0.121D+01 0.145D+01
 Coeff:     -0.777D-04 0.160D-03-0.361D-03-0.612D-03-0.308D-02-0.433D-02
 Coeff:      0.542D-02 0.256D-01 0.451D-01-0.240D+00 0.163D+00 0.523D+01
 Coeff:     -0.689D+01 0.121D+01 0.145D+01
 Gap=     0.171 Goal=   None    Shift=    0.000
 Gap=     0.048 Goal=   None    Shift=    0.000
 RMSDP=1.37D-04 MaxDP=3.71D-03 DE= 5.99D-06 OVMax= 9.17D-05

 Cycle  16  Pass 0  IDiag  1:
 RMSU=  8.30D-05    CP:  9.38D-01  3.00D+00  1.39D+00  1.20D+00  3.00D+00
                    CP:  3.00D+00  3.00D+00  3.00D+00  3.00D+00  1.92D+00
                    CP:  1.47D+00  1.18D+00  1.07D+00  2.77D+00  1.98D+00
 E= -539.445833098143     Delta-E=        0.000002897448 Rises=F Damp=F
 DIIS: error= 6.06D-05 at cycle  16 NSaved=  16.
 NSaved=16 IEnMin=14 EnMin= -539.445841983954     IErMin=11 ErrMin= 4.91D-05
 ErrMax= 6.06D-05  0.00D+00 EMaxC= 1.00D-01 BMatC= 9.93D-07 BMatP= 1.41D-06
 IDIUse=1 WtCom= 1.00D+00 WtEn= 0.00D+00
 Coeff-Com: -0.165D-03 0.283D-03 0.659D-04-0.461D-04-0.162D-02-0.505D-02
 Coeff-Com: -0.207D-01-0.732D-02 0.368D-01 0.487D-01 0.374D+00 0.294D+01
 Coeff-Com: -0.268D+01-0.818D+00-0.469D+00 0.160D+01
 Coeff:     -0.165D-03 0.283D-03 0.659D-04-0.461D-04-0.162D-02-0.505D-02
 Coeff:     -0.207D-01-0.732D-02 0.368D-01 0.487D-01 0.374D+00 0.294D+01
 Coeff:     -0.268D+01-0.818D+00-0.469D+00 0.160D+01
 Gap=     0.171 Goal=   None    Shift=    0.000
 Gap=     0.048 Goal=   None    Shift=    0.000
 RMSDP=1.99D-04 MaxDP=6.85D-03 DE= 2.90D-06 OVMax= 1.16D-04

 Problem detected with inexpensive integrals.
 Switching to full accuracy and repeating last cycle.
 Cycle  17  Pass 1  IDiag  1:
 E= -539.445712431930     Delta-E=        0.000120666213 Rises=F Damp=F
 DIIS: error= 8.31D-04 at cycle   1 NSaved=   1.
 NSaved= 1 IEnMin= 1 EnMin= -539.445712431930     IErMin= 1 ErrMin= 8.31D-04
 ErrMax= 8.31D-04  0.00D+00 EMaxC= 1.00D-01 BMatC= 2.23D-04 BMatP= 2.23D-04
 IDIUse=3 WtCom= 9.92D-01 WtEn= 8.31D-03
 Coeff-Com:  0.100D+01
 Coeff-En:   0.100D+01
 Coeff:      0.100D+01
 Gap=     0.171 Goal=   None    Shift=    0.000
 Gap=     0.048 Goal=   None    Shift=    0.000
 RMSDP=2.42D-03 MaxDP=7.42D-02 DE= 1.21D-04 OVMax= 1.59D-03

 Cycle  18  Pass 1  IDiag  1:
 RMSU=  2.28D-03    CP:  8.91D-01
 E= -539.445749251512     Delta-E=       -0.000036819582 Rises=F Damp=F
 DIIS: error= 1.40D-05 at cycle   2 NSaved=   2.
 NSaved= 2 IEnMin= 2 EnMin= -539.445749251512     IErMin= 2 ErrMin= 1.40D-05
 ErrMax= 1.40D-05  0.00D+00 EMaxC= 1.00D-01 BMatC= 4.75D-08 BMatP= 2.23D-04
 IDIUse=1 WtCom= 1.00D+00 WtEn= 0.00D+00
 Coeff-Com: -0.709D-02 0.101D+01
 Coeff:     -0.709D-02 0.101D+01
 Gap=     0.171 Goal=   None    Shift=    0.000
 Gap=     0.048 Goal=   None    Shift=    0.000
 RMSDP=3.50D-05 MaxDP=9.34D-04 DE=-3.68D-05 OVMax= 1.68D-04

 Cycle  19  Pass 1  IDiag  1:
 RMSU=  2.33D-05    CP:  8.90D-01  1.01D+00
 E= -539.445749250055     Delta-E=        0.000000001457 Rises=F Damp=F
 DIIS: error= 1.42D-05 at cycle   3 NSaved=   3.
 NSaved= 3 IEnMin= 2 EnMin= -539.445749251512     IErMin= 2 ErrMin= 1.40D-05
 ErrMax= 1.42D-05  0.00D+00 EMaxC= 1.00D-01 BMatC= 7.49D-08 BMatP= 4.75D-08
 IDIUse=1 WtCom= 1.00D+00 WtEn= 0.00D+00
 Coeff-Com: -0.442D-02 0.609D+00 0.395D+00
 Coeff:     -0.442D-02 0.609D+00 0.395D+00
 Gap=     0.171 Goal=   None    Shift=    0.000
 Gap=     0.048 Goal=   None    Shift=    0.000
 RMSDP=3.47D-07 MaxDP=1.44D-05 DE= 1.46D-09 OVMax= 1.51D-04

 Cycle  20  Pass 1  IDiag  1:
 RMSU=  2.74D-07    CP:  8.90D-01  1.01D+00  1.01D+00
 E= -539.445749270243     Delta-E=       -0.000000020188 Rises=F Damp=F
 DIIS: error= 5.09D-06 at cycle   4 NSaved=   4.
 NSaved= 4 IEnMin= 4 EnMin= -539.445749270243     IErMin= 4 ErrMin= 5.09D-06
 ErrMax= 5.09D-06  0.00D+00 EMaxC= 1.00D-01 BMatC= 6.28D-09 BMatP= 4.75D-08
 IDIUse=1 WtCom= 1.00D+00 WtEn= 0.00D+00
 Coeff-Com: -0.103D-02 0.137D+00 0.213D+00 0.652D+00
 Coeff:     -0.103D-02 0.137D+00 0.213D+00 0.652D+00
 Gap=     0.171 Goal=   None    Shift=    0.000
 Gap=     0.048 Goal=   None    Shift=    0.000
 RMSDP=2.73D-07 MaxDP=7.00D-06 DE=-2.02D-08 OVMax= 6.06D-05

 Cycle  21  Pass 1  IDiag  1:
 RMSU=  1.33D-07    CP:  8.90D-01  1.01D+00  1.02D+00  8.44D-01
 E= -539.445749272530     Delta-E=       -0.000000002287 Rises=F Damp=F
 DIIS: error= 2.67D-06 at cycle   5 NSaved=   5.
 NSaved= 5 IEnMin= 5 EnMin= -539.445749272530     IErMin= 5 ErrMin= 2.67D-06
 ErrMax= 2.67D-06  0.00D+00 EMaxC= 1.00D-01 BMatC= 2.97D-09 BMatP= 6.28D-09
 IDIUse=1 WtCom= 1.00D+00 WtEn= 0.00D+00
 Coeff-Com:  0.643D-03-0.924D-01 0.293D-01 0.471D+00 0.592D+00
 Coeff:      0.643D-03-0.924D-01 0.293D-01 0.471D+00 0.592D+00
 Gap=     0.171 Goal=   None    Shift=    0.000
 Gap=     0.048 Goal=   None    Shift=    0.000
 RMSDP=1.38D-07 MaxDP=5.17D-06 DE=-2.29D-09 OVMax= 2.90D-05

 Cycle  22  Pass 1  IDiag  1:
 RMSU=  5.75D-08    CP:  8.90D-01  1.01D+00  1.02D+00  9.90D-01  1.22D+00
 E= -539.445749273936     Delta-E=       -0.000000001405 Rises=F Damp=F
 DIIS: error= 7.97D-07 at cycle   6 NSaved=   6.
 NSaved= 6 IEnMin= 6 EnMin= -539.445749273936     IErMin= 6 ErrMin= 7.97D-07
 ErrMax= 7.97D-07  0.00D+00 EMaxC= 1.00D-01 BMatC= 2.75D-10 BMatP= 2.97D-09
 IDIUse=1 WtCom= 1.00D+00 WtEn= 0.00D+00
 Coeff-Com:  0.301D-03-0.404D-01-0.597D-01-0.179D+00-0.282D-01 0.131D+01
 Coeff:      0.301D-03-0.404D-01-0.597D-01-0.179D+00-0.282D-01 0.131D+01
 Gap=     0.171 Goal=   None    Shift=    0.000
 Gap=     0.048 Goal=   None    Shift=    0.000
 RMSDP=6.45D-08 MaxDP=3.65D-06 DE=-1.41D-09 OVMax= 1.69D-05

 Cycle  23  Pass 1  IDiag  1:
 RMSU=  5.22D-08    CP:  8.90D-01  1.01D+00  1.02D+00  9.98D-01  1.40D+00
                    CP:  1.42D+00
 E= -539.445749274302     Delta-E=       -0.000000000366 Rises=F Damp=F
 DIIS: error= 7.37D-07 at cycle   7 NSaved=   7.
 NSaved= 7 IEnMin= 7 EnMin= -539.445749274302     IErMin= 7 ErrMin= 7.37D-07
 ErrMax= 7.37D-07  0.00D+00 EMaxC= 1.00D-01 BMatC= 3.72D-10 BMatP= 2.75D-10
 IDIUse=1 WtCom= 1.00D+00 WtEn= 0.00D+00
 Coeff-Com:  0.245D-04-0.101D-02-0.581D-01-0.305D+00-0.228D+00 0.108D+01
 Coeff-Com:  0.512D+00
 Coeff:      0.245D-04-0.101D-02-0.581D-01-0.305D+00-0.228D+00 0.108D+01
 Coeff:      0.512D+00
 Gap=     0.171 Goal=   None    Shift=    0.000
 Gap=     0.048 Goal=   None    Shift=    0.000
 RMSDP=3.55D-08 MaxDP=2.16D-06 DE=-3.66D-10 OVMax= 9.28D-06

 Cycle  24  Pass 1  IDiag  1:
 RMSU=  2.12D-08    CP:  8.90D-01  1.01D+00  1.02D+00  1.01D+00  1.45D+00
                    CP:  1.67D+00  1.25D+00
 E= -539.445749274451     Delta-E=       -0.000000000149 Rises=F Damp=F
 DIIS: error= 1.43D-07 at cycle   8 NSaved=   8.
 NSaved= 8 IEnMin= 8 EnMin= -539.445749274451     IErMin= 8 ErrMin= 1.43D-07
 ErrMax= 1.43D-07  0.00D+00 EMaxC= 1.00D-01 BMatC= 1.50D-11 BMatP= 2.75D-10
 IDIUse=1 WtCom= 1.00D+00 WtEn= 0.00D+00
 Coeff-Com: -0.205D-05 0.158D-02-0.303D-01-0.165D+00-0.129D+00 0.543D+00
 Coeff-Com:  0.287D+00 0.493D+00
 Coeff:     -0.205D-05 0.158D-02-0.303D-01-0.165D+00-0.129D+00 0.543D+00
 Coeff:      0.287D+00 0.493D+00
 Gap=     0.171 Goal=   None    Shift=    0.000
 Gap=     0.048 Goal=   None    Shift=    0.000
 RMSDP=5.73D-09 MaxDP=2.87D-07 DE=-1.49D-10 OVMax= 1.22D-06

 SCF Done:  E(UB3LYP) =  -539.445749274     A.U. after   24 cycles
            NFock= 24  Conv=0.57D-08     -V/T= 2.0057
 <Sx>= 0.0000 <Sy>= 0.0000 <Sz>= 0.5000 <S**2>= 0.7628 S= 0.5064
 <L.S>=  0.00000000000    
 KE= 5.364021555287D+02 PE=-2.787565761913D+03 EE= 9.357295731275D+02
 Annihilation of the first spin contaminant:
 S**2 before annihilation     0.7628,   after     0.7501
 Leave Link  502 at Wed Apr  3 12:23:20 2024, MaxMem= 33554432000 cpu:            3768.9 elap:             119.0
 (Enter /apps/gaussian/g16-c01-avx2/g16/l601.exe)
 Copying SCF densities to generalized density rwf, IOpCl= 1 IROHF=0.

 **********************************************************************

            Population analysis using the SCF Density.

 **********************************************************************

 Orbital symmetries:
 Alpha Orbitals:
       Occupied  (A) (A) (A) (A) (A) (A) (A) (A) (A) (A) (A) (A)
                 (A) (A) (A) (A) (A) (A) (A) (A) (A) (A) (A) (A)
                 (A) (A) (A) (A) (A) (A) (A) (A) (A) (A) (A) (A)
                 (A) (A) (A) (A) (A) (A) (A) (A) (A) (A) (A)
       Virtual   (A) (A) (A) (A) (A) (A) (A) (A) (A) (A) (A) (A)
                 (A) (A) (A) (A) (A) (A) (A) (A) (A) (A) (A) (A)
                 (A) (A) (A) (A) (A) (A) (A) (A) (A) (A) (A) (A)
                 (A) (A) (A) (A) (A) (A) (A) (A) (A) (A) (A) (A)
                 (A) (A) (A) (A) (A) (A) (A) (A) (A) (A) (A) (A)
                 (A) (A) (A) (A) (A) (A) (A) (A) (A) (A) (A) (A)
                 (A) (A) (A) (A) (A) (A) (A) (A) (A) (A) (A) (A)
                 (A) (A) (A) (A) (A) (A) (A) (A) (A) (A) (A) (A)
                 (A) (A) (A) (A) (A) (A) (A) (A) (A) (A) (A) (A)
                 (A) (A) (A) (A) (A) (A) (A) (A) (A) (A) (A) (A)
                 (A) (A) (A) (A) (A) (A) (A) (A) (A) (A) (A) (A)
                 (A) (A) (A) (A) (A) (A) (A) (A) (A) (A) (A) (A)
                 (A) (A) (A) (A) (A) (A) (A) (A) (A) (A) (A) (A)
                 (A) (A) (A) (A) (A) (A) (A) (A) (A) (A) (A) (A)
                 (A) (A) (A) (A) (A) (A) (A) (A) (A) (A) (A) (A)
                 (A) (A) (A) (A) (A) (A) (A) (A) (A) (A) (A) (A)
                 (A) (A) (A) (A) (A) (A) (A) (A) (A) (A) (A) (A)
                 (A) (A) (A) (A) (A) (A) (A) (A) (A) (A) (A) (A)
                 (A) (A) (A) (A) (A) (A) (A) (A) (A) (A) (A) (A)
                 (A) (A) (A) (A) (A) (A) (A) (A) (A) (A) (A) (A)
                 (A) (A) (A) (A) (A) (A) (A) (A) (A) (A) (A) (A)
                 (A) (A) (A) (A) (A) (A) (A) (A) (A) (A) (A) (A)
                 (A) (A) (A) (A) (A) (A) (A) (A) (A) (A) (A) (A)
                 (A) (A) (A) (A) (A) (A) (A) (A) (A) (A) (A) (A)
                 (A) (A) (A) (A) (A) (A) (A) (A) (A) (A) (A) (A)
                 (A) (A) (A) (A) (A) (A) (A) (A) (A) (A) (A) (A)
                 (A) (A) (A) (A) (A) (A) (A) (A) (A) (A) (A) (A)
                 (A) (A) (A) (A) (A) (A) (A) (A) (A) (A) (A) (A)
                 (A) (A) (A) (A) (A) (A) (A) (A) (A) (A) (A) (A)
                 (A) (A) (A) (A) (A) (A) (A) (A) (A) (A) (A) (A)
                 (A) (A) (A) (A) (A) (A) (A) (A) (A) (A) (A) (A)
                 (A) (A) (A) (A) (A) (A) (A) (A) (A) (A) (A) (A)
                 (A) (A) (A) (A) (A) (A) (A) (A) (A) (A) (A) (A)
                 (A) (A) (A) (A) (A) (A) (A) (A) (A) (A) (A) (A)
                 (A) (A) (A) (A) (A) (A) (A) (A) (A) (A) (A) (A)
                 (A) (A) (A) (A) (A) (A) (A) (A) (A) (A) (A) (A)
                 (A) (A) (A) (A) (A) (A) (A) (A) (A) (A) (A) (A)
                 (A) (A) (A)
 Beta  Orbitals:
       Occupied  (A) (A) (A) (A) (A) (A) (A) (A) (A) (A) (A) (A)
                 (A) (A) (A) (A) (A) (A) (A) (A) (A) (A) (A) (A)
                 (A) (A) (A) (A) (A) (A) (A) (A) (A) (A) (A) (A)
                 (A) (A) (A) (A) (A) (A) (A) (A) (A) (A)
       Virtual   (A) (A) (A) (A) (A) (A) (A) (A) (A) (A) (A) (A)
                 (A) (A) (A) (A) (A) (A) (A) (A) (A) (A) (A) (A)
                 (A) (A) (A) (A) (A) (A) (A) (A) (A) (A) (A) (A)
                 (A) (A) (A) (A) (A) (A) (A) (A) (A) (A) (A) (A)
                 (A) (A) (A) (A) (A) (A) (A) (A) (A) (A) (A) (A)
                 (A) (A) (A) (A) (A) (A) (A) (A) (A) (A) (A) (A)
                 (A) (A) (A) (A) (A) (A) (A) (A) (A) (A) (A) (A)
                 (A) (A) (A) (A) (A) (A) (A) (A) (A) (A) (A) (A)
                 (A) (A) (A) (A) (A) (A) (A) (A) (A) (A) (A) (A)
                 (A) (A) (A) (A) (A) (A) (A) (A) (A) (A) (A) (A)
                 (A) (A) (A) (A) (A) (A) (A) (A) (A) (A) (A) (A)
                 (A) (A) (A) (A) (A) (A) (A) (A) (A) (A) (A) (A)
                 (A) (A) (A) (A) (A) (A) (A) (A) (A) (A) (A) (A)
                 (A) (A) (A) (A) (A) (A) (A) (A) (A) (A) (A) (A)
                 (A) (A) (A) (A) (A) (A) (A) (A) (A) (A) (A) (A)
                 (A) (A) (A) (A) (A) (A) (A) (A) (A) (A) (A) (A)
                 (A) (A) (A) (A) (A) (A) (A) (A) (A) (A) (A) (A)
                 (A) (A) (A) (A) (A) (A) (A) (A) (A) (A) (A) (A)
                 (A) (A) (A) (A) (A) (A) (A) (A) (A) (A) (A) (A)
                 (A) (A) (A) (A) (A) (A) (A) (A) (A) (A) (A) (A)
                 (A) (A) (A) (A) (A) (A) (A) (A) (A) (A) (A) (A)
                 (A) (A) (A) (A) (A) (A) (A) (A) (A) (A) (A) (A)
                 (A) (A) (A) (A) (A) (A) (A) (A) (A) (A) (A) (A)
                 (A) (A) (A) (A) (A) (A) (A) (A) (A) (A) (A) (A)
                 (A) (A) (A) (A) (A) (A) (A) (A) (A) (A) (A) (A)
                 (A) (A) (A) (A) (A) (A) (A) (A) (A) (A) (A) (A)
                 (A) (A) (A) (A) (A) (A) (A) (A) (A) (A) (A) (A)
                 (A) (A) (A) (A) (A) (A) (A) (A) (A) (A) (A) (A)
                 (A) (A) (A) (A) (A) (A) (A) (A) (A) (A) (A) (A)
                 (A) (A) (A) (A) (A) (A) (A) (A) (A) (A) (A) (A)
                 (A) (A) (A) (A) (A) (A) (A) (A) (A) (A) (A) (A)
                 (A) (A) (A) (A) (A) (A) (A) (A) (A) (A) (A) (A)
                 (A) (A) (A) (A) (A) (A) (A) (A) (A) (A) (A) (A)
                 (A) (A) (A) (A) (A) (A) (A) (A) (A) (A) (A) (A)
                 (A) (A) (A) (A) (A) (A) (A) (A) (A) (A) (A) (A)
                 (A) (A) (A) (A) (A) (A) (A) (A) (A) (A) (A) (A)
                 (A) (A) (A) (A) (A) (A) (A) (A) (A) (A) (A) (A)
                 (A) (A) (A) (A)
 The electronic state is 2-A.
 Alpha  occ. eigenvalues --  -10.37109 -10.37034 -10.35983 -10.35969 -10.35936
 Alpha  occ. eigenvalues --  -10.35916 -10.35058 -10.35057 -10.35053 -10.35052
 Alpha  occ. eigenvalues --  -10.34734 -10.34732 -10.33409 -10.33408  -1.06005
 Alpha  occ. eigenvalues --   -1.01990  -0.98737  -0.94512  -0.92835  -0.89575
 Alpha  occ. eigenvalues --   -0.88870  -0.79856  -0.79641  -0.78079  -0.74872
 Alpha  occ. eigenvalues --   -0.69621  -0.69579  -0.66736  -0.64160  -0.63835
 Alpha  occ. eigenvalues --   -0.60407  -0.59950  -0.59059  -0.58672  -0.58209
 Alpha  occ. eigenvalues --   -0.58024  -0.55771  -0.53235  -0.52437  -0.52417
 Alpha  occ. eigenvalues --   -0.50193  -0.49888  -0.49163  -0.45515  -0.44008
 Alpha  occ. eigenvalues --   -0.39875  -0.39318
 Alpha virt. eigenvalues --   -0.22197  -0.20532  -0.17584  -0.14316  -0.10301
 Alpha virt. eigenvalues --   -0.08710  -0.08417  -0.07316  -0.04930  -0.04568
 Alpha virt. eigenvalues --   -0.03834  -0.03287  -0.02947  -0.02492  -0.00888
 Alpha virt. eigenvalues --   -0.00778   0.00383   0.02208   0.02873   0.03199
 Alpha virt. eigenvalues --    0.04116   0.04245   0.05979   0.06516   0.07018
 Alpha virt. eigenvalues --    0.07562   0.07608   0.07897   0.08178   0.09675
 Alpha virt. eigenvalues --    0.10621   0.10681   0.11319   0.11909   0.12419
 Alpha virt. eigenvalues --    0.12841   0.13176   0.14067   0.14208   0.14815
 Alpha virt. eigenvalues --    0.16486   0.16695   0.16885   0.18825   0.19170
 Alpha virt. eigenvalues --    0.19834   0.19952   0.21778   0.22054   0.22525
 Alpha virt. eigenvalues --    0.22977   0.23862   0.24154   0.25328   0.26018
 Alpha virt. eigenvalues --    0.26698   0.27397   0.28344   0.28861   0.28987
 Alpha virt. eigenvalues --    0.29263   0.29901   0.30021   0.31029   0.32745
 Alpha virt. eigenvalues --    0.33000   0.33685   0.34102   0.34420   0.36026
 Alpha virt. eigenvalues --    0.36221   0.37218   0.37222   0.37921   0.39206
 Alpha virt. eigenvalues --    0.40142   0.40303   0.44850   0.45246   0.45690
 Alpha virt. eigenvalues --    0.47180   0.47460   0.48384   0.49513   0.52340
 Alpha virt. eigenvalues --    0.52403   0.52760   0.53089   0.53508   0.53521
 Alpha virt. eigenvalues --    0.54397   0.55830   0.56052   0.56451   0.57148
 Alpha virt. eigenvalues --    0.58588   0.59121   0.60609   0.60707   0.61172
 Alpha virt. eigenvalues --    0.63433   0.63817   0.65516   0.65970   0.66249
 Alpha virt. eigenvalues --    0.67058   0.67700   0.69092   0.70085   0.70601
 Alpha virt. eigenvalues --    0.71957   0.72543   0.72664   0.74337   0.77937
 Alpha virt. eigenvalues --    0.77988   0.79320   0.79701   0.79784   0.80268
 Alpha virt. eigenvalues --    0.81965   0.86535   0.87343   0.87382   0.89500
 Alpha virt. eigenvalues --    0.91313   0.92828   0.94071   0.94880   0.95073
 Alpha virt. eigenvalues --    0.96228   0.99427   1.01699   1.02151   1.03038
 Alpha virt. eigenvalues --    1.03875   1.05448   1.06072   1.06181   1.06765
 Alpha virt. eigenvalues --    1.07955   1.09607   1.09850   1.09959   1.10930
 Alpha virt. eigenvalues --    1.13609   1.13672   1.14224   1.16866   1.17609
 Alpha virt. eigenvalues --    1.18256   1.19309   1.21437   1.23546   1.23740
 Alpha virt. eigenvalues --    1.25314   1.27520   1.28009   1.29137   1.29328
 Alpha virt. eigenvalues --    1.29485   1.30547   1.32492   1.32981   1.33528
 Alpha virt. eigenvalues --    1.37135   1.37982   1.38407   1.39012   1.40580
 Alpha virt. eigenvalues --    1.41841   1.42416   1.42747   1.44297   1.46563
 Alpha virt. eigenvalues --    1.46968   1.48527   1.48681   1.49099   1.50715
 Alpha virt. eigenvalues --    1.50977   1.51714   1.52389   1.52836   1.54862
 Alpha virt. eigenvalues --    1.55687   1.56408   1.58496   1.59463   1.60892
 Alpha virt. eigenvalues --    1.61634   1.61865   1.66741   1.67922   1.69713
 Alpha virt. eigenvalues --    1.70869   1.73587   1.77888   1.78374   1.78435
 Alpha virt. eigenvalues --    1.80023   1.81562   1.83389   1.83935   1.86113
 Alpha virt. eigenvalues --    1.86297   1.87859   1.93396   1.93588   1.96453
 Alpha virt. eigenvalues --    1.97884   1.98007   1.98881   2.00166   2.01420
 Alpha virt. eigenvalues --    2.01946   2.02695   2.04357   2.06330   2.06539
 Alpha virt. eigenvalues --    2.07621   2.10056   2.12055   2.12178   2.13555
 Alpha virt. eigenvalues --    2.14351   2.19090   2.22247   2.22797   2.26944
 Alpha virt. eigenvalues --    2.27179   2.28564   2.29481   2.32571   2.32733
 Alpha virt. eigenvalues --    2.35291   2.36862   2.38987   2.39081   2.41499
 Alpha virt. eigenvalues --    2.41601   2.41652   2.44619   2.44957   2.45748
 Alpha virt. eigenvalues --    2.46564   2.47553   2.48386   2.49783   2.50077
 Alpha virt. eigenvalues --    2.52543   2.53359   2.54813   2.55264   2.55466
 Alpha virt. eigenvalues --    2.55504   2.56688   2.56998   2.60493   2.61107
 Alpha virt. eigenvalues --    2.61478   2.63055   2.63825   2.63992   2.65343
 Alpha virt. eigenvalues --    2.66379   2.66971   2.68073   2.68404   2.68523
 Alpha virt. eigenvalues --    2.70059   2.70845   2.71160   2.72054   2.72618
 Alpha virt. eigenvalues --    2.74741   2.75057   2.75431   2.77290   2.78639
 Alpha virt. eigenvalues --    2.79724   2.80172   2.82172   2.82388   2.84420
 Alpha virt. eigenvalues --    2.85395   2.87414   2.87706   2.87744   2.88624
 Alpha virt. eigenvalues --    2.89095   2.90334   2.91987   2.92714   2.92774
 Alpha virt. eigenvalues --    2.95903   2.96492   2.96634   2.97428   3.00253
 Alpha virt. eigenvalues --    3.01296   3.02243   3.02789   3.02912   3.03988
 Alpha virt. eigenvalues --    3.05034   3.05625   3.05838   3.06719   3.07671
 Alpha virt. eigenvalues --    3.10188   3.11899   3.13842   3.14025   3.14130
 Alpha virt. eigenvalues --    3.15355   3.15935   3.16105   3.16660   3.17282
 Alpha virt. eigenvalues --    3.18643   3.20950   3.21784   3.23325   3.23521
 Alpha virt. eigenvalues --    3.23643   3.25093   3.27017   3.27461   3.27940
 Alpha virt. eigenvalues --    3.29574   3.30853   3.32157   3.33524   3.33869
 Alpha virt. eigenvalues --    3.36190   3.36360   3.37107   3.37988   3.39755
 Alpha virt. eigenvalues --    3.41758   3.42232   3.43087   3.43153   3.44476
 Alpha virt. eigenvalues --    3.45064   3.46820   3.47238   3.49899   3.50345
 Alpha virt. eigenvalues --    3.54540   3.56606   3.61140   3.61658   3.62511
 Alpha virt. eigenvalues --    3.66151   3.67721   3.67859   3.68210   3.71127
 Alpha virt. eigenvalues --    3.73374   3.75268   3.75905   3.76361   3.78767
 Alpha virt. eigenvalues --    3.80595   3.82100   3.85490   3.87362   3.91262
 Alpha virt. eigenvalues --    3.91603   3.93165   3.94692   3.96482   3.97181
 Alpha virt. eigenvalues --    3.97848   3.99343   4.01409   4.01429   4.02858
 Alpha virt. eigenvalues --    4.06741   4.06796   4.08777   4.09440   4.10644
 Alpha virt. eigenvalues --    4.11464   4.12608   4.13479   4.14065   4.16663
 Alpha virt. eigenvalues --    4.17298   4.18493   4.22359   4.24822   4.27680
 Alpha virt. eigenvalues --    4.31340   4.34793   4.35876   4.38684   4.40141
 Alpha virt. eigenvalues --    4.43405   4.44303   4.45899   4.52332   4.52596
 Alpha virt. eigenvalues --    4.61008   4.61243   4.64755   4.66902   4.68917
 Alpha virt. eigenvalues --    4.69680   4.72764   4.75879   4.76863   4.80734
 Alpha virt. eigenvalues --    4.84940   4.86889   4.91828   5.00997   5.02662
 Alpha virt. eigenvalues --    5.03457   5.09128   5.12828   5.13285   5.18533
 Alpha virt. eigenvalues --    5.20163   5.31750   5.34646   5.48235   5.53558
 Alpha virt. eigenvalues --    5.58078   5.63038   5.96591  21.58745  22.32426
 Alpha virt. eigenvalues --   22.40472  22.44000  22.44635  22.45305  22.50680
 Alpha virt. eigenvalues --   22.59124  22.71804  22.76583  22.76737  22.89425
 Alpha virt. eigenvalues --   23.12364  23.63961
  Beta  occ. eigenvalues --  -10.36839 -10.36768 -10.35952 -10.35950 -10.35900
  Beta  occ. eigenvalues --  -10.35868 -10.34825 -10.34824 -10.34821 -10.34820
  Beta  occ. eigenvalues --  -10.34685 -10.34683 -10.33503 -10.33502  -1.05616
  Beta  occ. eigenvalues --   -1.01625  -0.98082  -0.94241  -0.92347  -0.88749
  Beta  occ. eigenvalues --   -0.88694  -0.79681  -0.79250  -0.77756  -0.74603
  Beta  occ. eigenvalues --   -0.69422  -0.69360  -0.66539  -0.63965  -0.63707
  Beta  occ. eigenvalues --   -0.60292  -0.59796  -0.58843  -0.58518  -0.58092
  Beta  occ. eigenvalues --   -0.56967  -0.55614  -0.52354  -0.52313  -0.52197
  Beta  occ. eigenvalues --   -0.50036  -0.49099  -0.47700  -0.44822  -0.42248
  Beta  occ. eigenvalues --   -0.38979
  Beta virt. eigenvalues --   -0.34219  -0.20405  -0.19867  -0.16322  -0.13492
  Beta virt. eigenvalues --   -0.09017  -0.08647  -0.08355  -0.07251  -0.04831
  Beta virt. eigenvalues --   -0.04529  -0.03165  -0.03108  -0.02835  -0.02442
  Beta virt. eigenvalues --   -0.00813  -0.00630   0.00484   0.02424   0.03300
  Beta virt. eigenvalues --    0.03303   0.04326   0.04512   0.06042   0.06603
  Beta virt. eigenvalues --    0.07134   0.07992   0.08004   0.08085   0.08286
  Beta virt. eigenvalues --    0.09752   0.10753   0.10825   0.11577   0.12667
  Beta virt. eigenvalues --    0.12797   0.12859   0.13367   0.14199   0.14623
  Beta virt. eigenvalues --    0.14891   0.16540   0.16793   0.17380   0.18944
  Beta virt. eigenvalues --    0.19345   0.20191   0.20230   0.21854   0.22342
  Beta virt. eigenvalues --    0.22803   0.23367   0.24121   0.24459   0.25553
  Beta virt. eigenvalues --    0.26214   0.26829   0.27564   0.28491   0.28988
  Beta virt. eigenvalues --    0.29178   0.29640   0.30003   0.30180   0.31170
  Beta virt. eigenvalues --    0.32888   0.33067   0.33782   0.34214   0.34539
  Beta virt. eigenvalues --    0.36156   0.36337   0.37329   0.37374   0.38043
  Beta virt. eigenvalues --    0.39535   0.40244   0.40411   0.44978   0.45332
  Beta virt. eigenvalues --    0.45887   0.47251   0.47546   0.48584   0.49646
  Beta virt. eigenvalues --    0.52519   0.52889   0.52940   0.53489   0.53569
  Beta virt. eigenvalues --    0.53641   0.54519   0.56158   0.56438   0.56625
  Beta virt. eigenvalues --    0.57338   0.58764   0.59440   0.60769   0.60815
  Beta virt. eigenvalues --    0.61702   0.63531   0.64212   0.65683   0.66104
  Beta virt. eigenvalues --    0.66500   0.67196   0.67730   0.69187   0.70220
  Beta virt. eigenvalues --    0.70847   0.72102   0.72720   0.73356   0.74604
  Beta virt. eigenvalues --    0.78059   0.78248   0.79384   0.79991   0.80312
  Beta virt. eigenvalues --    0.80553   0.82126   0.86587   0.87532   0.87910
  Beta virt. eigenvalues --    0.89833   0.91496   0.93068   0.94308   0.95216
  Beta virt. eigenvalues --    0.95249   0.96574   1.00001   1.02179   1.02499
  Beta virt. eigenvalues --    1.03199   1.04032   1.05581   1.06398   1.06541
  Beta virt. eigenvalues --    1.06912   1.08129   1.09721   1.09934   1.10068
  Beta virt. eigenvalues --    1.11229   1.13753   1.14273   1.14579   1.16998
  Beta virt. eigenvalues --    1.17798   1.18424   1.19746   1.22201   1.23691
  Beta virt. eigenvalues --    1.23851   1.25496   1.28047   1.28130   1.29313
  Beta virt. eigenvalues --    1.29594   1.30219   1.30860   1.32682   1.33182
  Beta virt. eigenvalues --    1.34077   1.37263   1.38111   1.38952   1.39591
  Beta virt. eigenvalues --    1.40724   1.42026   1.42571   1.43237   1.44466
  Beta virt. eigenvalues --    1.46897   1.47121   1.48688   1.48752   1.49602
  Beta virt. eigenvalues --    1.51298   1.51421   1.51833   1.52572   1.52971
  Beta virt. eigenvalues --    1.55087   1.56201   1.56558   1.58594   1.59587
  Beta virt. eigenvalues --    1.61187   1.61737   1.61918   1.67143   1.68506
  Beta virt. eigenvalues --    1.70298   1.71234   1.73823   1.78154   1.78484
  Beta virt. eigenvalues --    1.78747   1.80187   1.81735   1.83600   1.84112
  Beta virt. eigenvalues --    1.86422   1.86442   1.88100   1.93602   1.93805
  Beta virt. eigenvalues --    1.96636   1.98096   1.98256   1.99129   2.00481
  Beta virt. eigenvalues --    2.01647   2.02199   2.03008   2.04668   2.06480
  Beta virt. eigenvalues --    2.06907   2.07887   2.10237   2.12295   2.12497
  Beta virt. eigenvalues --    2.13875   2.14725   2.19359   2.22676   2.23068
  Beta virt. eigenvalues --    2.27313   2.27427   2.28976   2.29801   2.32785
  Beta virt. eigenvalues --    2.32960   2.35459   2.36964   2.39206   2.39262
  Beta virt. eigenvalues --    2.41800   2.41867   2.42391   2.44785   2.45035
  Beta virt. eigenvalues --    2.46179   2.47036   2.47864   2.48513   2.50115
  Beta virt. eigenvalues --    2.50254   2.53077   2.53574   2.55427   2.55479
  Beta virt. eigenvalues --    2.55662   2.55820   2.56826   2.57576   2.60779
  Beta virt. eigenvalues --    2.61512   2.61833   2.63207   2.63951   2.64301
  Beta virt. eigenvalues --    2.65756   2.66787   2.67083   2.68510   2.68761
  Beta virt. eigenvalues --    2.68956   2.70456   2.71053   2.71924   2.72542
  Beta virt. eigenvalues --    2.72793   2.74936   2.75542   2.75586   2.77523
  Beta virt. eigenvalues --    2.79006   2.79912   2.80434   2.82604   2.82862
  Beta virt. eigenvalues --    2.84830   2.85922   2.87820   2.87911   2.88190
  Beta virt. eigenvalues --    2.88927   2.89577   2.90747   2.92343   2.93025
  Beta virt. eigenvalues --    2.93075   2.96066   2.97030   2.97170   2.97966
  Beta virt. eigenvalues --    3.00829   3.01518   3.02568   3.03219   3.03426
  Beta virt. eigenvalues --    3.04351   3.05244   3.06063   3.06237   3.07049
  Beta virt. eigenvalues --    3.08133   3.10339   3.12102   3.14084   3.14690
  Beta virt. eigenvalues --    3.14819   3.15680   3.16252   3.16387   3.16774
  Beta virt. eigenvalues --    3.17718   3.18862   3.21168   3.21913   3.23470
  Beta virt. eigenvalues --    3.23634   3.24030   3.25254   3.27523   3.27908
  Beta virt. eigenvalues --    3.28232   3.29775   3.31278   3.32292   3.34033
  Beta virt. eigenvalues --    3.34108   3.36522   3.36526   3.37738   3.38373
  Beta virt. eigenvalues --    3.40331   3.42116   3.42401   3.43263   3.43476
  Beta virt. eigenvalues --    3.44738   3.45478   3.46951   3.47334   3.50482
  Beta virt. eigenvalues --    3.50515   3.54679   3.56807   3.61420   3.61795
  Beta virt. eigenvalues --    3.62876   3.66324   3.68069   3.68160   3.68450
  Beta virt. eigenvalues --    3.71568   3.73649   3.75726   3.76232   3.76438
  Beta virt. eigenvalues --    3.78947   3.80905   3.82439   3.85598   3.87623
  Beta virt. eigenvalues --    3.91449   3.91943   3.93332   3.95006   3.96835
  Beta virt. eigenvalues --    3.97756   3.98520   3.99402   4.01578   4.01972
  Beta virt. eigenvalues --    4.02983   4.06884   4.06905   4.09295   4.09616
  Beta virt. eigenvalues --    4.11133   4.11831   4.12822   4.13884   4.14478
  Beta virt. eigenvalues --    4.16811   4.17449   4.18727   4.22468   4.25725
  Beta virt. eigenvalues --    4.27816   4.31501   4.35025   4.36080   4.39195
  Beta virt. eigenvalues --    4.40549   4.43812   4.44532   4.46082   4.52536
  Beta virt. eigenvalues --    4.52765   4.61180   4.61377   4.64882   4.67260
  Beta virt. eigenvalues --    4.69373   4.69874   4.72986   4.76114   4.77029
  Beta virt. eigenvalues --    4.80902   4.85102   4.87034   4.92098   5.01099
  Beta virt. eigenvalues --    5.02987   5.03555   5.09321   5.12945   5.13507
  Beta virt. eigenvalues --    5.18632   5.20326   5.31845   5.34784   5.48325
  Beta virt. eigenvalues --    5.53766   5.58252   5.63196   5.96656  21.58884
  Beta virt. eigenvalues --   22.32513  22.40684  22.44248  22.44697  22.45550
  Beta virt. eigenvalues --   22.50735  22.59165  22.72036  22.76753  22.76880
  Beta virt. eigenvalues --   22.89513  23.12422  23.64021
          Condensed to atoms (all electrons):
               1          2          3          4          5          6
     1  C    4.859321   0.506353  -0.023252  -0.051220  -0.010490   0.463877
     2  C    0.506353   4.951238   0.432088  -0.037434  -0.050750  -0.017674
     3  C   -0.023252   0.432088   4.890229   0.422618  -0.053067  -0.028063
     4  C   -0.051220  -0.037434   0.422618   5.025492   0.484561  -0.038009
     5  C   -0.010490  -0.050750  -0.053067   0.484561   4.993479   0.486789
     6  C    0.463877  -0.017674  -0.028063  -0.038009   0.486789   4.829674
     7  C    0.010195  -0.084033   0.424745  -0.031135   0.015348  -0.001169
     8  C   -0.004941   0.008040  -0.041997   0.351689  -0.112773   0.001989
     9  C    0.000096   0.000920  -0.056927  -0.041995   0.016501  -0.000593
    10  C   -0.001324   0.008918  -0.014563  -0.046218  -0.002755   0.000238
    11  C   -0.000017   0.000059   0.000922   0.008034  -0.000967   0.000051
    12  H    0.000001  -0.000007  -0.000053  -0.000079   0.000032  -0.000001
    13  C   -0.000001  -0.000017   0.000096  -0.004938   0.000065   0.000012
    14  C    0.000012   0.000051  -0.000594   0.001994   0.001372  -0.000206
    15  C    0.000065  -0.000965   0.016496  -0.112777  -0.006485   0.001375
    16  H    0.000695   0.000046  -0.046002   0.008501  -0.000394   0.000044
    17  H    0.415933  -0.035604   0.006390   0.000148   0.006816  -0.036630
    18  H   -0.031293   0.419249  -0.057000   0.010601  -0.001504   0.006953
    19  H    0.005798  -0.000533   0.006902  -0.036043   0.405924  -0.026801
    20  H   -0.034951   0.006470  -0.000337   0.008529  -0.037335   0.412677
    21  H    0.000020  -0.000450   0.006603  -0.001285   0.000134  -0.000005
    22  H    0.000000   0.000000   0.000001   0.000124  -0.000006   0.000000
    23  H   -0.000000   0.000000   0.000007  -0.000161   0.000040  -0.000001
    24  H   -0.000036  -0.000028   0.000056  -0.019350   0.007822   0.001285
               7          8          9         10         11         12
     1  C    0.010195  -0.004941   0.000096  -0.001324  -0.000017   0.000001
     2  C   -0.084033   0.008040   0.000920   0.008918   0.000059  -0.000007
     3  C    0.424745  -0.041997  -0.056927  -0.014563   0.000922  -0.000053
     4  C   -0.031135   0.351689  -0.041995  -0.046218   0.008034  -0.000079
     5  C    0.015348  -0.112773   0.016501  -0.002755  -0.000967   0.000032
     6  C   -0.001169   0.001989  -0.000593   0.000238   0.000051  -0.000001
     7  C    4.992448  -0.046184  -0.014580   0.447457   0.008915   0.001287
     8  C   -0.046184   5.025372   0.422701  -0.031129  -0.037433   0.010585
     9  C   -0.014580   0.422701   4.890093   0.424694   0.432023  -0.056974
    10  C    0.447457  -0.031129   0.424694   4.992590  -0.084028  -0.001694
    11  C    0.008915  -0.037433   0.432023  -0.084028   4.951300   0.419262
    12  H    0.001287   0.010585  -0.056974  -0.001694   0.419262   0.497230
    13  C   -0.001324  -0.051167  -0.023284   0.010188   0.506430  -0.031299
    14  C    0.000239  -0.038046  -0.028077  -0.001169  -0.017655   0.006955
    15  C   -0.002752   0.484576  -0.053026   0.015339  -0.050731  -0.001505
    16  H    0.415122  -0.001287   0.006602  -0.032999  -0.000450  -0.000029
    17  H   -0.000523   0.000124   0.000001   0.000012   0.000000  -0.000000
    18  H   -0.001691  -0.000080  -0.000052   0.001285  -0.000007  -0.000000
    19  H   -0.000063  -0.019333   0.000057  -0.000074  -0.000028   0.000001
    20  H    0.000033  -0.000161   0.000007  -0.000003   0.000000   0.000000
    21  H   -0.033012   0.008490  -0.045976   0.415137   0.000037   0.004525
    22  H    0.000012   0.000147   0.006393  -0.000523  -0.035608  -0.004936
    23  H   -0.000003   0.008526  -0.000338   0.000033   0.006472  -0.000165
    24  H   -0.000075  -0.036046   0.006905  -0.000063  -0.000534   0.000042
              13         14         15         16         17         18
[...]
 0060181,0.00000082,0.00000440,-0.00000030,-0.00000002,0.00038734,0.000
 00936,-0.00000023,0.00061923,-0.00022092,-0.00000110,-0.00135306,-0.00
 003894,0.00000154,-0.00045304,-0.00004749,-0.00000007,0.00040222,-0.00
 069938,-0.00000146,0.00007767,0.00010047,-0.00000032,0.14857739,-0.003
 28678,-0.00311836,-0.00001175,-0.00108648,0.00014535,0.00000200,-0.001
 07760,0.00075537,-0.00001088,-0.00010659,0.00605485,0.00000105,0.12856
 599,-0.25775939,-0.00043373,0.01637687,-0.01998506,-0.00005128,-0.0003
 3359,0.00018356,0.00000081,0.00059687,-0.00120646,0.00000392,-0.000122
 93,0.00016064,0.00000102,0.00013860,0.00004088,-0.00000056,0.00011771,
 -0.00040081,-0.00000080,0.00002094,0.00001583,0.,-0.00050293,0.0003499
 6,0.00000065,0.00046590,0.00042077,0.00000086,-0.00182219,-0.00122404,
 -0.00000129,-0.00008104,0.00002009,0.00000135,0.00081336,-0.00082857,-
 0.00000181,0.00007447,-0.00000168,0.00000093,-0.13637215,0.27737697,-0
 .00000059,-0.00001270,0.00587649,-0.00000205,0.00000144,-0.00062427,0.
 00000765,-0.00001019,0.00794132,0.00001491,-0.00001617,0.00516745,0.00
 027359,-0.00043428,-0.03999750,0.00002134,-0.00002954,0.00470538,-0.00
 000010,-0.00000015,-0.00008913,-0.00000314,0.00000255,-0.00411897,-0.0
 0000019,0.00000142,-0.00037598,0.00000027,-0.00000105,0.00026920,0.000
 00003,-0.00000125,0.00000946,0.00000004,0.00000002,0.00000641,-0.00000
 085,0.00000018,0.00029139,0.00000045,0.00000148,-0.00033651,-0.0000035
 4,-0.00000205,0.00015842,-0.00000055,0.00000120,-0.00071422,0.00000101
 ,-0.00000081,-0.00004338,-0.00000045,0.00000097,-0.00065298,-0.0003015
 1,0.00049860,0.02407201,-0.00923532,-0.00215988,0.00000864,-0.00034754
 ,0.00248146,0.00000888,0.00119566,-0.00004765,-0.00000191,0.00046527,-
 0.00201349,0.00000086,-0.00986591,0.00159853,0.00001400,-0.34256971,0.
 00044995,0.00021319,-0.00029438,0.00002131,0.00000001,-0.00015151,0.00
 042013,0.00000074,-0.00014564,0.00013235,0.00000011,0.00005181,-0.0002
 3847,-0.00000019,-0.00011043,-0.00033604,-0.00000063,-0.00000530,-0.00
 001960,0.00000008,-0.00028389,0.00013828,0.00000045,0.00013681,0.00004
 607,0.00000005,-0.00001158,0.00002290,0.00000016,0.00000125,0.00000592
 ,0.00000002,0.00074860,0.00002025,-0.00000281,-0.00047932,-0.00024352,
 -0.00000076,0.00087016,-0.00004672,-0.00000299,0.36005013,0.02776225,0
 .00528130,-0.00002402,0.00313194,-0.00480066,-0.00002071,-0.00026849,-
 0.00070086,0.00000117,-0.00206498,-0.00498308,-0.00001693,-0.02896024,
 0.00344326,0.00001575,0.00080828,-0.06139103,-0.00002977,0.00026878,0.
 00017853,0.00000067,-0.00133349,0.00073094,0.00000241,0.00001803,-0.00
 033741,-0.00000014,-0.00000172,-0.00018788,-0.00000092,-0.00017879,0.0
 0022683,0.00000093,-0.00002873,-0.00004019,-0.00000025,0.00027809,-0.0
 0022891,-0.00000055,-0.00028791,-0.00022543,-0.00000037,0.00005791,0.0
 0025221,0.00000021,-0.00007073,0.00000027,0.00000003,-0.00045142,0.000
 98648,0.00000726,0.00136998,0.00013330,0.00000083,0.00018908,0.0010638
 5,0.00000675,-0.00022045,0.06062403,0.00005795,-0.00000346,0.00792690,
 0.00000968,-0.00002013,0.00656762,-0.00000197,0.00000126,-0.00126100,0
 .00000124,-0.00001689,0.00625742,-0.00003626,-0.00000644,0.00635863,0.
 00021327,-0.00002849,-0.04297338,-0.00000006,0.00000071,-0.00037803,-0
 .00000176,0.00000087,-0.00011338,-0.00000028,-0.00000036,-0.00029628,0
 .00000047,-0.00000019,0.00036519,-0.00000025,0.00000095,-0.00022167,0.
 00000011,-0.00000028,0.00014188,0.00000038,-0.00000012,-0.00009422,-0.
 00000010,-0.00000045,0.00015348,0.00000015,-0.00000030,0.00016091,-0.0
 0000007,-0.00000006,0.00002900,-0.00000371,0.00000689,-0.00331555,0.00
 000168,0.00000214,-0.00106636,-0.00000243,0.00000658,-0.00318103,-0.00
 023771,0.00005725,0.02523571,-0.00046780,-0.00005945,0.00000016,-0.000
 22935,0.00049259,0.00000078,0.00072335,-0.00223945,0.00000085,0.000639
 48,-0.00007817,-0.00000156,-0.00000812,0.00009457,-0.00000004,0.000083
 34,-0.00035508,-0.00000049,-0.01097463,0.00206361,0.00001922,0.0004637
 9,0.00204733,0.00000938,-0.01052051,-0.00145879,0.00001346,-0.34033951
 ,0.00952711,0.00029297,0.00114719,-0.00098594,-0.00000641,0.00053245,0
 .00059463,0.00000091,0.00071314,-0.00012061,-0.00000073,-0.00009291,-0
 .00003583,0.00000034,-0.00075451,-0.00061467,-0.00000079,0.00080057,-0
 .00002800,-0.00000334,-0.00005953,0.00002082,0.00000003,-0.00000399,-0
 .00002209,0.,-0.00000964,0.00001204,0.00000016,-0.00000664,-0.00000678
 ,-0.00000009,0.35837215,-0.00010043,-0.00046419,-0.00000060,-0.0012485
 9,0.00053246,0.00000222,-0.00122786,-0.00489576,-0.00001532,-0.0001731
 3,-0.00039777,0.00000110,0.00009753,0.00018783,0.00000054,0.00008183,-
 0.00004798,-0.00000037,-0.02971941,0.00462400,0.00002451,0.00122133,-0
 .00493731,-0.00002053,0.02806261,0.00340424,-0.00003090,0.00981756,-0.
 06084980,-0.00003993,0.00180565,0.00072859,0.00000586,-0.00072326,-0.0
 0051308,-0.00000082,-0.00109943,0.00046382,0.00000164,0.00050540,0.000
 32719,-0.00000049,0.00154110,0.00035058,-0.00000016,0.00029030,0.00093
 749,0.00000571,-0.00012247,0.00001776,0.00000020,0.00000598,-0.0000179
 4,-0.00000005,-0.00004802,-0.00000928,-0.00000025,-0.00000303,0.000012
 69,0.00000019,-0.00904105,0.06098491,0.00000046,-0.00000066,-0.0000606
 8,-0.00000218,0.00000056,-0.00023972,0.00000267,-0.00001389,0.00534361
 ,-0.00000204,0.00000134,-0.00100561,0.00000010,0.00000057,-0.00018965,
 0.00000005,0.00000011,0.00015008,-0.00003267,-0.00000539,0.00637408,0.
 00000780,-0.00002149,0.00682210,0.00006138,-0.00000519,0.00662888,0.00
 029363,-0.00003853,-0.04187975,-0.00000129,0.00000824,-0.00387906,-0.0
 0000123,-0.00000211,0.00040981,-0.00000285,0.00000091,0.00015856,0.000
 00182,0.00000014,0.00036888,0.00000229,0.00000179,-0.00048984,-0.00000
 270,0.00000593,-0.00273239,-0.00000017,0.00000009,-0.00004991,0.000000
 04,-0.00000003,0.00001938,0.00000001,-0.00000030,0.00015432,-0.0000000
 7,0.00000018,-0.00010039,-0.00032467,0.00006752,0.02474931,0.00043938,
 -0.00021240,-0.00000066,-0.00026594,-0.00014802,0.00000006,0.00009619,
 -0.00014441,-0.00000022,-0.00003663,0.00008943,-0.00000085,-0.00026469
 ,-0.00013369,-0.00000001,0.00007265,0.00045097,0.00000062,-0.00009117,
 0.00036536,0.00000011,-0.00022558,0.00075741,0.00000084,-0.00153840,0.
 00326866,0.00001570,0.00069985,0.00022542,-0.00000001,0.01275208,0.014
 47388,0.00001687,0.00075620,-0.00037275,-0.00000571,-0.14197393,-0.128
 66379,-0.00012595,-0.01217649,-0.02736820,-0.00003312,-0.00513429,0.00
 135449,0.00001415,0.00004291,0.00007430,0.00000003,0.00001006,-0.00000
 980,0.,-0.00000444,0.00000349,0.,0.00007312,-0.00000708,0.00000004,-0.
 00000135,0.00000771,0.,-0.00000686,-0.00000593,0.00000014,0.14627662,-
 0.00027429,0.00018499,0.00000050,0.00026908,0.00017375,-0.00000006,-0.
 00021141,0.00003240,0.00000006,0.00003026,-0.00015168,0.00000148,0.000
 02322,0.00001980,-0.00000005,-0.00002779,-0.00018218,-0.00000018,0.000
 39463,-0.00028808,0.00000014,0.00037731,0.00004210,0.00000094,0.003804
 26,-0.00248637,-0.00002302,-0.00102421,-0.00051601,-0.00000040,-0.0160
 7600,-0.01888916,-0.00002435,0.00001073,0.00101797,0.00000946,-0.12849
 231,-0.26305659,-0.00026850,0.00285130,0.00645858,0.00000236,0.0013984
 1,0.00129204,-0.00001046,-0.00006900,-0.00008467,0.00000002,-0.0000077
 3,0.00000091,-0.00000002,0.00000544,0.00000207,0.,-0.00002153,0.000001
 40,-0.00000011,0.00000392,-0.00000333,0.,-0.00000033,-0.00000847,-0.00
 000027,0.13701348,0.27563250,-0.00000075,0.00000045,0.00000132,0.00000
 067,0.00000027,0.00007365,-0.00000039,0.00000011,0.00009369,-0.0000009
 9,0.00000130,-0.00099006,0.00000034,-0.00000010,0.00005307,-0.00000017
 ,-0.00000048,-0.00005795,0.00000042,0.,-0.00050739,0.00000067,0.000000
 55,-0.00070707,0.00001603,-0.00002249,0.00845313,-0.00000236,-0.000001
 89,0.00025320,-0.00003763,-0.00005417,0.00376480,-0.00000496,0.0000098
 2,-0.00433803,-0.00012571,-0.00026843,-0.03955176,0.00002103,0.0000325
 1,0.00354788,0.00001409,-0.00001062,0.00641534,-0.00000021,-0.00000015
 ,-0.00004989,0.,-0.00000002,0.00001700,0.00000001,0.,0.00000391,-0.000
 00008,-0.00000011,0.00007318,0.,-0.00000001,-0.00000217,0.00000014,-0.
 00000021,0.00013319,0.00012373,0.00030510,0.02667975,-0.00041150,0.000
 21148,0.00000054,0.00036583,0.00006984,-0.00000040,-0.00035805,-0.0000
 9287,-0.00000016,0.00091668,-0.00077585,-0.00000237,0.00016253,0.00014
 881,0.00000035,-0.00004864,-0.00038470,-0.00000044,-0.00003797,-0.0000
 4859,0.00000031,-0.00214314,-0.00342673,0.00000211,-0.00016498,-0.0009
 7881,-0.00000277,-0.00004176,0.00040063,0.00000033,-0.00614987,0.00010
 288,0.00001296,-0.00046002,0.00138006,0.00000174,-0.00833070,0.0282344
 7,0.00006726,-0.12212398,0.11588841,0.00028923,0.01181782,-0.01764047,
 -0.00003733,0.00001258,0.00000325,-0.00000012,-0.00000767,0.00000440,0
 .00000001,-0.00001289,-0.00003269,0.00000012,-0.00001651,-0.00000487,-
 0.00000025,-0.00000080,-0.00001664,0.,0.00002706,-0.00005725,-0.000000
 08,0.00111243,-0.00026148,-0.00000497,0.12492958,0.00007162,-0.0001012
 8,-0.00000006,-0.00008739,-0.00024939,0.00000007,0.00002146,-0.0001250
 0,0.00000026,0.00097777,-0.00033724,-0.00000132,0.00011382,0.00007808,
 -0.00000021,-0.00005074,-0.00004002,-0.00000031,-0.00028536,-0.0000980
 6,-0.00000058,-0.00337519,-0.00237469,-0.00001223,-0.00075794,0.000659
 77,0.00000418,0.00015318,-0.00007407,0.00000041,-0.00054757,0.00100166
 ,-0.00000956,-0.00023344,0.00011399,0.00000234,-0.00168762,0.00437663,
 -0.00000475,0.11553005,-0.28183566,-0.00054673,0.01291823,-0.01824031,
 -0.00005748,0.00000701,-0.00000653,0.00000016,0.00000061,0.00000300,0.
 ,-0.00002356,-0.00003260,-0.00000028,-0.00000361,-0.00001313,0.0000003
 4,-0.00001182,-0.00001565,-0.00000005,0.00001940,-0.00002555,-0.000000
 11,0.00021018,0.00062265,0.00000691,-0.12296135,0.29574337,0.00000072,
 -0.00000032,-0.00009422,-0.00000081,-0.00000002,-0.00022166,0.00000001
 ,0.00000013,-0.00029631,0.00000038,0.00000061,-0.00011342,-0.00000015,
 -0.00000056,0.00016091,0.00000013,0.00000044,0.00015349,0.00000025,-0.
 00000031,0.00036518,0.00000206,-0.00001174,0.00625755,-0.00000229,0.00
 000477,-0.00126097,-0.00000002,-0.00000032,-0.00037801,0.00001200,-0.0
 0001036,0.00656745,-0.00000096,0.00000065,-0.00106634,0.00001241,-0.00
 003449,0.00792685,0.00028967,-0.00054704,-0.04297452,0.00001768,-0.000
 02762,0.00635870,-0.00000009,0.00000016,-0.00010040,0.,0.,-0.00000217,
 0.00000009,-0.00000024,0.00014188,-0.00000011,0.00000030,-0.00021291,0
 .,-0.00000004,0.00001961,0.00000002,-0.00000003,0.00002901,-0.00000409
 ,0.00000726,-0.00331544,-0.00032237,0.00061154,0.02523685,0.00056045,-
 0.00041257,-0.00000075,-0.00055635,-0.00030392,-0.00000003,0.00044725,
 0.00016383,-0.00000055,-0.00115719,-0.00056837,-0.00000445,-0.00048813
 ,-0.00137067,-0.00000237,0.00036277,0.00033199,-0.00000011,-0.00007632
 ,0.00010477,0.00000045,-0.00897086,0.00115526,0.00001626,0.00070997,0.
 00217198,0.00001132,-0.00052596,-0.00068045,-0.00000070,0.00064892,-0.
 00056784,-0.00000231,-0.00005645,0.00000446,-0.00000067,-0.00016413,-0
 .00268813,0.00000180,-0.01345228,0.00300771,0.00002387,-0.33957767,0.0
 2666941,0.00036225,0.00000540,0.00001990,0.00000018,0.00002850,-0.0000
 3038,0.00000002,0.00000491,0.00002121,0.00000005,0.00025969,-0.0023318
 0,-0.00000329,-0.00001038,-0.00000167,-0.00000024,-0.00002851,0.000140
 58,-0.00000043,-0.00061175,0.00028403,0.00000113,0.00096398,0.00000226
 ,-0.00000453,0.36168413,0.00009976,0.00017683,-0.00000037,0.00018019,0
 .00040680,0.00000053,-0.00042604,-0.00038860,0.00000058,-0.00069130,0.
 00102558,0.00001000,0.00041258,-0.00208893,-0.00000415,-0.00035480,0.0
 0067724,0.00000211,0.00008579,0.00010562,-0.00000042,0.02888923,0.0036
 3782,-0.00003275,0.00116449,-0.00546945,-0.00002557,0.00169274,0.00084
 811,0.00000012,0.00012185,-0.00084807,-0.00000057,0.00003045,0.0001324
 5,0.00000139,-0.00237216,-0.00426509,-0.00001590,-0.02889107,0.0056243
 0,0.00003124,0.02816048,-0.06257124,-0.00007004,-0.00004016,-0.0000243
 2,-0.00000032,-0.00004483,0.00004602,-0.00000005,-0.00000003,0.0000153
 2,0.,-0.00207868,-0.00204274,-0.00000641,-0.00000041,-0.00001926,0.000
 00037,0.00017413,-0.00040444,0.00000061,-0.00122871,0.00018539,0.00000
 166,0.00023806,0.00097003,0.00000722,-0.02512156,0.06427064,-0.0000000
 3,0.00000028,0.00029137,0.00000075,0.00000096,0.00000946,-0.00000165,0
 .00000002,-0.00037597,-0.00000566,0.00000861,-0.00411892,0.00000231,-0
 .00000406,0.00015840,-0.00000144,0.00000187,-0.00033651,0.00000004,-0.
 00000081,0.00026918,0.00006654,-0.00000003,0.00516735,0.00000943,-0.00
 002650,0.00794125,0.00000397,0.00000331,-0.00008913,-0.00000110,0.0000
 0005,-0.00062428,-0.00000053,0.00000136,-0.00065301,0.00000178,-0.0000
 1602,0.00587659,-0.00003435,-0.00000157,0.00470540,0.00036652,-0.00007
 035,-0.03999705,0.00000005,-0.00000033,0.00015432,-0.00000007,0.000000
 02,0.00007319,0.,0.,0.00000641,-0.00000388,-0.00000558,0.00162186,-0.0
 0000014,0.00000027,-0.00021290,-0.00000029,0.00000020,-0.00071420,-0.0
 0000167,0.00000012,-0.00004335,-0.00000372,0.00000745,-0.00318110,-0.0
 0039687,0.00010073,0.02407165\\0.00003875,-0.00000059,-0.00000050,-0.0
 0006544,-0.00005558,-0.00000055,0.00003448,0.00012070,0.00000192,-0.00
 006607,-0.00009274,0.00000041,0.00004434,0.00003724,-0.00000116,0.0000
 1484,-0.00001979,0.00000012,-0.00001423,-0.00005934,-0.00000081,0.0000
 5169,0.00010110,-0.00000054,-0.00009080,-0.00008728,-0.00000160,0.0000
 4583,0.00004002,0.00000085,0.00001857,0.00008593,0.00000046,0.00000567
 ,-0.00001135,-0.00000052,0.00002062,-0.00003550,0.00000040,0.00002240,
 -0.00000498,-0.00000014,-0.00001212,-0.00005511,0.00000102,-0.00000531
 ,-0.00000805,0.00000057,-0.00002099,-0.00000204,0.00000026,0.00001241,
 0.00000011,0.00000044,-0.00000965,0.00001173,-0.00000091,-0.00000742,-
 0.00000454,-0.00000011,0.00000471,0.00000863,-0.00000063,-0.00000813,0
 .00001967,-0.00000009,0.00000073,0.00000876,0.00000006,-0.00001488,0.0
 0000301,0.00000102\\\@
 The archive entry for this job was punched.


 IN THE FIGHT BETWEEN YOU AND THE WORLD, BACK THE WORLD

                                        -- FRANZ KAFKA
 Job cpu time:       0 days  8 hours  0 minutes 42.3 seconds.
 Elapsed time:       0 days  0 hours 15 minutes 10.7 seconds.
 File lengths (MBytes):  RWF=    859 Int=      0 D2E=      0 Chk=     28 Scr=      1
 Normal termination of Gaussian 16 at Wed Apr  3 12:46:13 2024.
 Initial command:
 /apps/gaussian/g16-c01-avx2/g16/l1.exe "/var/tmp/pbs.9194007.pbs/Gau-1337504.inp" -scrdir="/var/tmp/pbs.9194007.pbs/"
 Entering Link 1 = /apps/gaussian/g16-c01-avx2/g16/l1.exe PID=   1341330.
  
 Copyright (c) 1988-2019, Gaussian, Inc.  All Rights Reserved.
  
 This is part of the Gaussian(R) 16 program.  It is based on
 the Gaussian(R) 09 system (copyright 2009, Gaussian, Inc.),
 the Gaussian(R) 03 system (copyright 2003, Gaussian, Inc.),
 the Gaussian(R) 98 system (copyright 1998, Gaussian, Inc.),
 the Gaussian(R) 94 system (copyright 1995, Gaussian, Inc.),
 the Gaussian 92(TM) system (copyright 1992, Gaussian, Inc.),
 the Gaussian 90(TM) system (copyright 1990, Gaussian, Inc.),
 the Gaussian 88(TM) system (copyright 1988, Gaussian, Inc.),
 the Gaussian 86(TM) system (copyright 1986, Carnegie Mellon
 University), and the Gaussian 82(TM) system (copyright 1983,
 Carnegie Mellon University). Gaussian is a federally registered
 trademark of Gaussian, Inc.
  
 This software contains proprietary and confidential information,
 including trade secrets, belonging to Gaussian, Inc.
  
 This software is provided under written license and may be
 used, copied, transmitted, or stored only in accord with that
 written license.
  
 The following legend is applicable only to US Government
 contracts under FAR:
  
                    RESTRICTED RIGHTS LEGEND
  
 Use, reproduction and disclosure by the US Government is
 subject to restrictions as set forth in subparagraphs (a)
 and (c) of the Commercial Computer Software - Restricted
 Rights clause in FAR 52.227-19.
  
 Gaussian, Inc.
 340 Quinnipiac St., Bldg. 40, Wallingford CT 06492
  
  
 ---------------------------------------------------------------
 Warning -- This program may not be used in any manner that
 competes with the business of Gaussian, Inc. or will provide
 assistance to any competitor of Gaussian, Inc.  The licensee
 of this program is prohibited from giving any competitor of
 Gaussian, Inc. access to this program.  By using this program,
 the user acknowledges that Gaussian, Inc. is engaged in the
 business of creating and licensing software in the field of
 computational chemistry and represents and warrants to the
 licensee that it is not a competitor of Gaussian, Inc. and that
 it will not use this program in any manner prohibited above.
 ---------------------------------------------------------------
  

 Cite this work as:
 Gaussian 16, Revision C.01,
 M. J. Frisch, G. W. Trucks, H. B. Schlegel, G. E. Scuseria, 
 M. A. Robb, J. R. Cheeseman, G. Scalmani, V. Barone, 
 G. A. Petersson, H. Nakatsuji, X. Li, M. Caricato, A. V. Marenich, 
 J. Bloino, B. G. Janesko, R. Gomperts, B. Mennucci, H. P. Hratchian, 
 J. V. Ortiz, A. F. Izmaylov, J. L. Sonnenberg, D. Williams-Young, 
 F. Ding, F. Lipparini, F. Egidi, J. Goings, B. Peng, A. Petrone, 
 T. Henderson, D. Ranasinghe, V. G. Zakrzewski, J. Gao, N. Rega, 
 G. Zheng, W. Liang, M. Hada, M. Ehara, K. Toyota, R. Fukuda, 
 J. Hasegawa, M. Ishida, T. Nakajima, Y. Honda, O. Kitao, H. Nakai, 
 T. Vreven, K. Throssell, J. A. Montgomery, Jr., J. E. Peralta, 
 F. Ogliaro, M. J. Bearpark, J. J. Heyd, E. N. Brothers, K. N. Kudin, 
 V. N. Staroverov, T. A. Keith, R. Kobayashi, J. Normand, 
 K. Raghavachari, A. P. Rendell, J. C. Burant, S. S. Iyengar, 
 J. Tomasi, M. Cossi, J. M. Millam, M. Klene, C. Adamo, R. Cammi, 
 J. W. Ochterski, R. L. Martin, K. Morokuma, O. Farkas, 
 J. B. Foresman, and D. J. Fox, Gaussian, Inc., Wallingford CT, 2019.
 
 ******************************************
 Gaussian 16:  ES64L-G16RevC.01  3-Jul-2019
                 3-Apr-2024 
 ******************************************
 %Mem=250GB
 %NProcShared=32
 Will use up to   32 processors via shared memory.
 %oldchk=Phenanthrene_c_1-1.chk
 %chk=Phenanthrene_c_1-2.chk
 Copying data from "Phenanthrene_c_1-1.chk" to current chk file "Phenanthrene_c_1-2.chk"
 IOpt=  2 FromEx=T IUOpen= 4 IOptOp= 5 NList=   0 IFRang= 0 IUIn= 4 IUOut= 2.
 ----------------------------------------------------------------------
 #p opt freq=savenormalmodes b3lyp/def2tzvp TD=(nstates=2, Root=1) geom
 =check
 ----------------------------------------------------------------------
 1/18=20,19=15,26=3,29=2,38=1/1,3;
 2/9=110,12=2,40=1/2;
 3/5=44,7=101,11=9,14=-4,25=1,30=1,71=1,74=-5/1,2,3,8;
 4//1;
 5/5=2,38=5/2;
 8/6=1,10=1,107=1,108=2/1;
 9/8=1,15=2,41=2,42=1,70=2/14;
 10/5=4,28=1/2;
 6/7=2,8=2,9=2,10=2/1;
 7/12=6,13=5,14=1,92=1/1,2,3,16;
 1/18=20,19=15,26=3/3(2);
 2/9=110/2;
 99//99;
 2/9=110/2;
 3/5=44,7=101,11=9,14=-2,25=1,30=1,71=1,74=-5/1,2,3,8;
 4/5=5,16=3,69=1/1;
 5/5=2,38=5/2;
 8/6=1,10=1,107=1,108=2/1;
 9/8=1,15=2,41=2,42=1,49=4,70=2/14;
 10/5=4,28=1/2;
 7/12=6,13=5,14=1,92=1/1,2,3,16;
 1/18=20,19=15,26=3/3(-8);
 2/9=110/2;
 6/7=2,8=2,9=2,10=2/1;
 99/9=10/99;
 Leave Link    1 at Wed Apr  3 12:46:14 2024, MaxMem= 33554432000 cpu:               1.7 elap:               0.1
 (Enter /apps/gaussian/g16-c01-avx2/g16/l101.exe)
 ----------------------------------------------------------------------
 Cationic phenanthrene TD-DFT excitation/optimization freq calculation.
  1 2
 ----------------------------------------------------------------------
 Charge and Multiplicity card seems defective:
 Wanted an integer as input.
                                                                                 
 ?
 Error termination via Lnk1e in /apps/gaussian/g16-c01-avx2/g16/l101.exe at Wed Apr  3 12:46:15 2024.
 Job cpu time:       0 days  0 hours  0 minutes  6.3 seconds.
 Elapsed time:       0 days  0 hours  0 minutes  0.2 seconds.
 File lengths (MBytes):  RWF=      6 Int=      0 D2E=      0 Chk=     22 Scr=      1
