 Entering Gaussian System, Link 0=g16
 Input=Phenanthrene_n_linked1.gjf
 Output=Phenanthrene_n_linked1.log
 Initial command:
 /apps/gaussian/g16-c01-avx2/g16/l1.exe "/var/tmp/pbs.9164975.pbs/Gau-970912.inp" -scrdir="/var/tmp/pbs.9164975.pbs/"
 Entering Link 1 = /apps/gaussian/g16-c01-avx2/g16/l1.exe PID=    970913.
  
 Copyright (c) 1988-2019, Gaussian, Inc.  All Rights Reserved.
  
 This is part of the Gaussian(R) 16 program.  It is based on
 the Gaussian(R) 09 system (copyright 2009, Gaussian, Inc.),
 the Gaussian(R) 03 system (copyright 2003, Gaussian, Inc.),
 the Gaussian(R) 98 system (copyright 1998, Gaussian, Inc.),
 the Gaussian(R) 94 system (copyright 1995, Gaussian, Inc.),
 the Gaussian 92(TM) system (copyright 1992, Gaussian, Inc.),
 the Gaussian 90(TM) system (copyright 1990, Gaussian, Inc.),
 the Gaussian 88(TM) system (copyright 1988, Gaussian, Inc.),
 the Gaussian 86(TM) system (copyright 1986, Carnegie Mellon
 University), and the Gaussian 82(TM) system (copyright 1983,
 Carnegie Mellon University). Gaussian is a federally registered
 trademark of Gaussian, Inc.
  
 This software contains proprietary and confidential information,
 including trade secrets, belonging to Gaussian, Inc.
  
 This software is provided under written license and may be
 used, copied, transmitted, or stored only in accord with that
 written license.
  
 The following legend is applicable only to US Government
 contracts under FAR:
  
                    RESTRICTED RIGHTS LEGEND
  
 Use, reproduction and disclosure by the US Government is
 subject to restrictions as set forth in subparagraphs (a)
 and (c) of the Commercial Computer Software - Restricted
 Rights clause in FAR 52.227-19.
  
 Gaussian, Inc.
 340 Quinnipiac St., Bldg. 40, Wallingford CT 06492
  
  
 ---------------------------------------------------------------
 Warning -- This program may not be used in any manner that
 competes with the business of Gaussian, Inc. or will provide
 assistance to any competitor of Gaussian, Inc.  The licensee
 of this program is prohibited from giving any competitor of
 Gaussian, Inc. access to this program.  By using this program,
 the user acknowledges that Gaussian, Inc. is engaged in the
 business of creating and licensing software in the field of
 computational chemistry and represents and warrants to the
 licensee that it is not a competitor of Gaussian, Inc. and that
 it will not use this program in any manner prohibited above.
 ---------------------------------------------------------------
  

 Cite this work as:
 Gaussian 16, Revision C.01,
 M. J. Frisch, G. W. Trucks, H. B. Schlegel, G. E. Scuseria, 
 M. A. Robb, J. R. Cheeseman, G. Scalmani, V. Barone, 
 G. A. Petersson, H. Nakatsuji, X. Li, M. Caricato, A. V. Marenich, 
 J. Bloino, B. G. Janesko, R. Gomperts, B. Mennucci, H. P. Hratchian, 
 J. V. Ortiz, A. F. Izmaylov, J. L. Sonnenberg, D. Williams-Young, 
 F. Ding, F. Lipparini, F. Egidi, J. Goings, B. Peng, A. Petrone, 
 T. Henderson, D. Ranasinghe, V. G. Zakrzewski, J. Gao, N. Rega, 
 G. Zheng, W. Liang, M. Hada, M. Ehara, K. Toyota, R. Fukuda, 
 J. Hasegawa, M. Ishida, T. Nakajima, Y. Honda, O. Kitao, H. Nakai, 
 T. Vreven, K. Throssell, J. A. Montgomery, Jr., J. E. Peralta, 
 F. Ogliaro, M. J. Bearpark, J. J. Heyd, E. N. Brothers, K. N. Kudin, 
 V. N. Staroverov, T. A. Keith, R. Kobayashi, J. Normand, 
 K. Raghavachari, A. P. Rendell, J. C. Burant, S. S. Iyengar, 
 J. Tomasi, M. Cossi, J. M. Millam, M. Klene, C. Adamo, R. Cammi, 
 J. W. Ochterski, R. L. Martin, K. Morokuma, O. Farkas, 
 J. B. Foresman, and D. J. Fox, Gaussian, Inc., Wallingford CT, 2019.
 
 ******************************************
 Gaussian 16:  ES64L-G16RevC.01  3-Jul-2019
                26-Mar-2024 
 ******************************************
 %chk=Phenanthrene_n_1-1.chk
 %Mem=250GB
 %NProcShared=32
 Will use up to   32 processors via shared memory.
 --------------------------------------------
 #p B3LYP/def2TZVP geom=connectivity opt freq
 --------------------------------------------
 1/18=20,19=15,26=3,38=1,57=2/1,3;
 2/9=110,12=2,17=6,18=5,40=1/2;
 3/5=44,7=101,11=2,25=1,30=1,71=1,74=-5/1,2,3;
 4//1;
 5/5=2,38=5/2;
 6/7=2,8=2,9=2,10=2,28=1/1;
 7//1,2,3,16;
 1/18=20,19=15,26=3/3(2);
 2/9=110/2;
 99//99;
 2/9=110/2;
 3/5=44,7=101,11=2,25=1,30=1,71=1,74=-5/1,2,3;
 4/5=5,16=3,69=1/1;
 5/5=2,38=5/2;
 7//1,2,3,16;
 1/18=20,19=15,26=3/3(-5);
 2/9=110/2;
 6/7=2,8=2,9=2,10=2,19=2,28=1/1;
 99/9=1/99;
 Leave Link    1 at Tue Mar 26 13:19:10 2024, MaxMem= 33554432000 cpu:               0.7 elap:               0.0
 (Enter /apps/gaussian/g16-c01-avx2/g16/l101.exe)
 ----------------------------------------------------------------------
 Neutral phenanthrene ground state optimization and frequency calculati
 on.
 ----------------------------------------------------------------------
 Symbolic Z-matrix:
 Charge =  0 Multiplicity = 1
 C                    -5.04569  -5.19937  -0.00346 
 C                    -3.6658   -5.19937  -0.00346 
 C                    -2.94646  -3.98272  -0.00346 
 C                    -3.64405  -2.75083  -0.00139 
 C                    -5.05804  -2.78069  -0.00098 
 C                    -5.7445   -3.97926  -0.00247 
 C                    -1.51141  -3.9912   -0.00514 
 C                    -2.89462  -1.51414   0.00008 
 C                    -1.47977  -1.56241  -0.00174 
 C                    -0.80808  -2.83059  -0.00483 
 C                    -0.73404  -0.3617    0. 
 H                     0.36499  -0.41836  -0.00142 
 C                    -1.37266   0.86148   0.00368 
 C                    -2.77767   0.91629   0.0056 
 C                    -3.52253  -0.24684   0.00369 
 H                    -1.00182  -4.96697  -0.00697 
 H                    -5.60491  -6.14628  -0.00432 
 H                    -3.10678  -6.14731  -0.00417 
 H                    -5.62742  -1.83972   0.00032 
 H                    -6.84459  -3.98618  -0.00275 
 H                     0.29274  -2.83107  -0.00646 
 H                    -0.79205   1.79544   0.00515 
 H                    -3.28039   1.89481   0.00858 
 H                    -4.62019  -0.17774   0.00532 
 
 ITRead=  0  0  0  0  0  0  0  0  0  0  0  0  0  0  0  0  0  0  0  0
 ITRead=  0  0  0  0
 MicOpt= -1 -1 -1 -1 -1 -1 -1 -1 -1 -1 -1 -1 -1 -1 -1 -1 -1 -1 -1 -1
 MicOpt= -1 -1 -1 -1
 NAtoms=     24 NQM=       24 NQMF=       0 NMMI=      0 NMMIF=      0
                NMic=       0 NMicF=      0.
                    Isotopes and Nuclear Properties:
 (Nuclear quadrupole moments (NQMom) in fm**2, nuclear magnetic moments (NMagM)
  in nuclear magnetons)

  Atom         1           2           3           4           5           6           7           8           9          10
 IAtWgt=          12          12          12          12          12          12          12          12          12          12
 AtmWgt=  12.0000000  12.0000000  12.0000000  12.0000000  12.0000000  12.0000000  12.0000000  12.0000000  12.0000000  12.0000000
 NucSpn=           0           0           0           0           0           0           0           0           0           0
 AtZEff=  -0.0000000  -0.0000000  -0.0000000  -0.0000000  -0.0000000  -0.0000000  -0.0000000  -0.0000000  -0.0000000  -0.0000000
 NQMom=    0.0000000   0.0000000   0.0000000   0.0000000   0.0000000   0.0000000   0.0000000   0.0000000   0.0000000   0.0000000
 NMagM=    0.0000000   0.0000000   0.0000000   0.0000000   0.0000000   0.0000000   0.0000000   0.0000000   0.0000000   0.0000000
 AtZNuc=   6.0000000   6.0000000   6.0000000   6.0000000   6.0000000   6.0000000   6.0000000   6.0000000   6.0000000   6.0000000

  Atom        11          12          13          14          15          16          17          18          19          20
 IAtWgt=          12           1          12          12          12           1           1           1           1           1
 AtmWgt=  12.0000000   1.0078250  12.0000000  12.0000000  12.0000000   1.0078250   1.0078250   1.0078250   1.0078250   1.0078250
 NucSpn=           0           1           0           0           0           1           1           1           1           1
 AtZEff=  -0.0000000  -0.0000000  -0.0000000  -0.0000000  -0.0000000  -0.0000000  -0.0000000  -0.0000000  -0.0000000  -0.0000000
 NQMom=    0.0000000   0.0000000   0.0000000   0.0000000   0.0000000   0.0000000   0.0000000   0.0000000   0.0000000   0.0000000
 NMagM=    0.0000000   2.7928460   0.0000000   0.0000000   0.0000000   2.7928460   2.7928460   2.7928460   2.7928460   2.7928460
 AtZNuc=   6.0000000   1.0000000   6.0000000   6.0000000   6.0000000   1.0000000   1.0000000   1.0000000   1.0000000   1.0000000

  Atom        21          22          23          24
 IAtWgt=           1           1           1           1
 AtmWgt=   1.0078250   1.0078250   1.0078250   1.0078250
 NucSpn=           1           1           1           1
 AtZEff=  -0.0000000  -0.0000000  -0.0000000  -0.0000000
 NQMom=    0.0000000   0.0000000   0.0000000   0.0000000
 NMagM=    2.7928460   2.7928460   2.7928460   2.7928460
 AtZNuc=   1.0000000   1.0000000   1.0000000   1.0000000
 Leave Link  101 at Tue Mar 26 13:19:10 2024, MaxMem= 33554432000 cpu:               6.1 elap:               0.2
 (Enter /apps/gaussian/g16-c01-avx2/g16/l103.exe)

 GradGradGradGradGradGradGradGradGradGradGradGradGradGradGradGradGradGrad
 Berny optimization.
 Initialization pass.
                           ----------------------------
                           !    Initial Parameters    !
                           ! (Angstroms and Degrees)  !
 --------------------------                            --------------------------
 ! Name  Definition              Value          Derivative Info.                !
 --------------------------------------------------------------------------------
 ! R1    R(1,2)                  1.3799         estimate D2E/DX2                !
 ! R2    R(1,6)                  1.4061         estimate D2E/DX2                !
 ! R3    R(1,17)                 1.0997         estimate D2E/DX2                !
 ! R4    R(2,3)                  1.4134         estimate D2E/DX2                !
 ! R5    R(2,18)                 1.1005         estimate D2E/DX2                !
 ! R6    R(3,4)                  1.4157         estimate D2E/DX2                !
 ! R7    R(3,7)                  1.4351         estimate D2E/DX2                !
 ! R8    R(4,5)                  1.4143         estimate D2E/DX2                !
 ! R9    R(4,8)                  1.446          estimate D2E/DX2                !
 ! R10   R(5,6)                  1.3812         estimate D2E/DX2                !
 ! R11   R(5,19)                 1.0998         estimate D2E/DX2                !
 ! R12   R(6,20)                 1.1001         estimate D2E/DX2                !
 ! R13   R(7,10)                 1.3571         estimate D2E/DX2                !
 ! R14   R(7,16)                 1.1008         estimate D2E/DX2                !
 ! R15   R(8,9)                  1.4157         estimate D2E/DX2                !
 ! R16   R(8,15)                 1.4143         estimate D2E/DX2                !
 ! R17   R(9,10)                 1.4351         estimate D2E/DX2                !
 ! R18   R(9,11)                 1.4134         estimate D2E/DX2                !
 ! R19   R(10,21)                1.1008         estimate D2E/DX2                !
 ! R20   R(11,12)                1.1005         estimate D2E/DX2                !
 ! R21   R(11,13)                1.3799         estimate D2E/DX2                !
 ! R22   R(13,14)                1.4061         estimate D2E/DX2                !
 ! R23   R(13,22)                1.0997         estimate D2E/DX2                !
 ! R24   R(14,15)                1.3812         estimate D2E/DX2                !
 ! R25   R(14,23)                1.1001         estimate D2E/DX2                !
 ! R26   R(15,24)                1.0998         estimate D2E/DX2                !
 ! A1    A(2,1,6)              119.8017         estimate D2E/DX2                !
 ! A2    A(2,1,17)             120.5649         estimate D2E/DX2                !
 ! A3    A(6,1,17)             119.6335         estimate D2E/DX2                !
 ! A4    A(1,2,3)              120.5935         estimate D2E/DX2                !
 ! A5    A(1,2,18)             120.5287         estimate D2E/DX2                !
 ! A6    A(3,2,18)             118.8778         estimate D2E/DX2                !
 ! A7    A(2,3,4)              119.8847         estimate D2E/DX2                !
 ! A8    A(2,3,7)              120.2548         estimate D2E/DX2                !
 ! A9    A(4,3,7)              119.8604         estimate D2E/DX2                !
 ! A10   A(3,4,5)              118.3118         estimate D2E/DX2                !
 ! A11   A(3,4,8)              119.2625         estimate D2E/DX2                !
 ! A12   A(5,4,8)              122.4257         estimate D2E/DX2                !
 ! A13   A(4,5,6)              121.0112         estimate D2E/DX2                !
 ! A14   A(4,5,19)             119.9681         estimate D2E/DX2                !
 ! A15   A(6,5,19)             119.0207         estimate D2E/DX2                !
 ! A16   A(1,6,5)              120.3971         estimate D2E/DX2                !
 ! A17   A(1,6,20)             119.4411         estimate D2E/DX2                !
 ! A18   A(5,6,20)             120.1618         estimate D2E/DX2                !
 ! A19   A(3,7,10)             120.877          estimate D2E/DX2                !
 ! A20   A(3,7,16)             117.9141         estimate D2E/DX2                !
 ! A21   A(10,7,16)            121.2089         estimate D2E/DX2                !
 ! A22   A(4,8,9)              119.2615         estimate D2E/DX2                !
 ! A23   A(4,8,15)             122.4269         estimate D2E/DX2                !
 ! A24   A(9,8,15)             118.3116         estimate D2E/DX2                !
 ! A25   A(8,9,10)             119.8622         estimate D2E/DX2                !
 ! A26   A(8,9,11)             119.8889         estimate D2E/DX2                !
 ! A27   A(10,9,11)            120.2488         estimate D2E/DX2                !
 ! A28   A(7,10,9)             120.8763         estimate D2E/DX2                !
 ! A29   A(7,10,21)            121.1906         estimate D2E/DX2                !
 ! A30   A(9,10,21)            117.933          estimate D2E/DX2                !
 ! A31   A(9,11,12)            118.8921         estimate D2E/DX2                !
 ! A32   A(9,11,13)            120.5879         estimate D2E/DX2                !
 ! A33   A(12,11,13)           120.52           estimate D2E/DX2                !
 ! A34   A(11,13,14)           119.8028         estimate D2E/DX2                !
 ! A35   A(11,13,22)           120.5637         estimate D2E/DX2                !
 ! A36   A(14,13,22)           119.6336         estimate D2E/DX2                !
 ! A37   A(13,14,15)           120.4014         estimate D2E/DX2                !
 ! A38   A(13,14,23)           119.4262         estimate D2E/DX2                !
 ! A39   A(15,14,23)           120.1724         estimate D2E/DX2                !
 ! A40   A(8,15,14)            121.0074         estimate D2E/DX2                !
 ! A41   A(8,15,24)            119.9598         estimate D2E/DX2                !
 ! A42   A(14,15,24)           119.0328         estimate D2E/DX2                !
 ! D1    D(6,1,2,3)             -0.0466         estimate D2E/DX2                !
 ! D2    D(6,1,2,18)           179.9961         estimate D2E/DX2                !
 ! D3    D(17,1,2,3)           179.9483         estimate D2E/DX2                !
 ! D4    D(17,1,2,18)           -0.009          estimate D2E/DX2                !
 ! D5    D(2,1,6,5)             -0.0246         estimate D2E/DX2                !
 ! D6    D(2,1,6,20)           179.9838         estimate D2E/DX2                !
 ! D7    D(17,1,6,5)           179.9804         estimate D2E/DX2                !
 ! D8    D(17,1,6,20)           -0.0112         estimate D2E/DX2                !
 ! D9    D(1,2,3,4)              0.0966         estimate D2E/DX2                !
 ! D10   D(1,2,3,7)           -179.9223         estimate D2E/DX2                !
 ! D11   D(18,2,3,4)          -179.9454         estimate D2E/DX2                !
 ! D12   D(18,2,3,7)             0.0357         estimate D2E/DX2                !
 ! D13   D(2,3,4,5)             -0.0745         estimate D2E/DX2                !
 ! D14   D(2,3,4,8)            179.932          estimate D2E/DX2                !
 ! D15   D(7,3,4,5)            179.9444         estimate D2E/DX2                !
 ! D16   D(7,3,4,8)             -0.0491         estimate D2E/DX2                !
 ! D17   D(2,3,7,10)          -179.9837         estimate D2E/DX2                !
 ! D18   D(2,3,7,16)             0.0328         estimate D2E/DX2                !
 ! D19   D(4,3,7,10)            -0.0026         estimate D2E/DX2                !
 ! D20   D(4,3,7,16)          -179.9861         estimate D2E/DX2                !
 ! D21   D(3,4,5,6)              0.0043         estimate D2E/DX2                !
 ! D22   D(3,4,5,19)          -179.9826         estimate D2E/DX2                !
 ! D23   D(8,4,5,6)            179.9976         estimate D2E/DX2                !
 ! D24   D(8,4,5,19)             0.0107         estimate D2E/DX2                !
 ! D25   D(3,4,8,9)              0.0536         estimate D2E/DX2                !
 ! D26   D(3,4,8,15)          -179.9273         estimate D2E/DX2                !
 ! D27   D(5,4,8,9)           -179.9397         estimate D2E/DX2                !
 ! D28   D(5,4,8,15)             0.0794         estimate D2E/DX2                !
 ! D29   D(4,5,6,1)              0.0457         estimate D2E/DX2                !
 ! D30   D(4,5,6,20)          -179.9627         estimate D2E/DX2                !
 ! D31   D(19,5,6,1)          -179.9672         estimate D2E/DX2                !
 ! D32   D(19,5,6,20)            0.0243         estimate D2E/DX2                !
 ! D33   D(3,7,10,9)             0.0499         estimate D2E/DX2                !
 ! D34   D(3,7,10,21)         -179.9789         estimate D2E/DX2                !
 ! D35   D(16,7,10,9)         -179.9671         estimate D2E/DX2                !
 ! D36   D(16,7,10,21)           0.004          estimate D2E/DX2                !
 ! D37   D(4,8,9,10)            -0.0079         estimate D2E/DX2                !
 ! D38   D(4,8,9,11)          -179.9845         estimate D2E/DX2                !
 ! D39   D(15,8,9,10)          179.9738         estimate D2E/DX2                !
 ! D40   D(15,8,9,11)           -0.0028         estimate D2E/DX2                !
 ! D41   D(4,8,15,14)          179.9713         estimate D2E/DX2                !
 ! D42   D(4,8,15,24)           -0.0095         estimate D2E/DX2                !
 ! D43   D(9,8,15,14)           -0.0098         estimate D2E/DX2                !
 ! D44   D(9,8,15,24)         -179.9906         estimate D2E/DX2                !
 ! D45   D(8,9,10,7)            -0.0445         estimate D2E/DX2                !
 ! D46   D(8,9,10,21)          179.9834         estimate D2E/DX2                !
 ! D47   D(11,9,10,7)          179.932          estimate D2E/DX2                !
 ! D48   D(11,9,10,21)          -0.04           estimate D2E/DX2                !
 ! D49   D(8,9,11,12)          179.9979         estimate D2E/DX2                !
 ! D50   D(8,9,11,13)            0.0106         estimate D2E/DX2                !
 ! D51   D(10,9,11,12)           0.0213         estimate D2E/DX2                !
 ! D52   D(10,9,11,13)        -179.9659         estimate D2E/DX2                !
 ! D53   D(9,11,13,14)          -0.0058         estimate D2E/DX2                !
 ! D54   D(9,11,13,22)         179.9929         estimate D2E/DX2                !
 ! D55   D(12,11,13,14)       -179.9929         estimate D2E/DX2                !
 ! D56   D(12,11,13,22)          0.0059         estimate D2E/DX2                !
 ! D57   D(11,13,14,15)         -0.0069         estimate D2E/DX2                !
 ! D58   D(11,13,14,23)        179.9972         estimate D2E/DX2                !
 ! D59   D(22,13,14,15)        179.9943         estimate D2E/DX2                !
 ! D60   D(22,13,14,23)         -0.0016         estimate D2E/DX2                !
 ! D61   D(13,14,15,8)           0.0148         estimate D2E/DX2                !
 ! D62   D(13,14,15,24)        179.9958         estimate D2E/DX2                !
 ! D63   D(23,14,15,8)        -179.9893         estimate D2E/DX2                !
 ! D64   D(23,14,15,24)         -0.0083         estimate D2E/DX2                !
 --------------------------------------------------------------------------------
 Trust Radius=3.00D-01 FncErr=1.00D-07 GrdErr=1.00D-06 EigMax=2.50D+02 EigMin=1.00D-04
 Number of steps in this run=    142 maximum allowed number of steps=    144.
 GradGradGradGradGradGradGradGradGradGradGradGradGradGradGradGradGradGrad

 Leave Link  103 at Tue Mar 26 13:19:11 2024, MaxMem= 33554432000 cpu:               0.5 elap:               0.0
 (Enter /apps/gaussian/g16-c01-avx2/g16/l202.exe)
                          Input orientation:                          
 ---------------------------------------------------------------------
 Center     Atomic      Atomic             Coordinates (Angstroms)
 Number     Number       Type             X           Y           Z
 ---------------------------------------------------------------------
      1          6           0       -5.045689   -5.199365   -0.003461
      2          6           0       -3.665798   -5.199365   -0.003461
      3          6           0       -2.946462   -3.982721   -0.003461
      4          6           0       -3.644051   -2.750825   -0.001391
      5          6           0       -5.058036   -2.780689   -0.000982
      6          6           0       -5.744498   -3.979258   -0.002469
      7          6           0       -1.511410   -3.991204   -0.005141
      8          6           0       -2.894619   -1.514138    0.000080
      9          6           0       -1.479772   -1.562413   -0.001737
     10          6           0       -0.808082   -2.830589   -0.004829
     11          6           0       -0.734043   -0.361702    0.000000
     12          1           0        0.364992   -0.418358   -0.001418
     13          6           0       -1.372661    0.861481    0.003681
     14          6           0       -2.777669    0.916287    0.005603
     15          6           0       -3.522534   -0.246840    0.003686
     16          1           0       -1.001824   -4.966973   -0.006966
     17          1           0       -5.604910   -6.146280   -0.004315
     18          1           0       -3.106779   -6.147306   -0.004167
     19          1           0       -5.627418   -1.839715    0.000322
     20          1           0       -6.844593   -3.986181   -0.002746
     21          1           0        0.292735   -2.831069   -0.006458
     22          1           0       -0.792053    1.795444    0.005148
     23          1           0       -3.280394    1.894811    0.008584
     24          1           0       -4.620193   -0.177735    0.005323
 ---------------------------------------------------------------------
                    Distance matrix (angstroms):
                    1          2          3          4          5
     1  C    0.000000
     2  C    1.379891   0.000000
     3  C    2.426309   1.413388   0.000000
     4  C    2.821337   2.448637   1.415699   0.000000
     5  C    2.418709   2.790757   2.429739   1.414300   0.000000
     6  C    1.406057   2.410323   2.798038   2.433295   1.381231
     7  C    3.735075   2.470029   1.435078   2.467126   3.747522
     8  C    4.267085   3.765053   2.469130   1.446045   2.506896
     9  C    5.093445   4.243363   2.830031   2.469094   3.779970
    10  C    4.854731   3.711825   2.429008   2.837093   4.250249
    11  C    6.480223   5.656694   4.243417   3.765111   4.954636
    12  H    7.220353   6.253423   4.865225   4.638192   5.915221
    13  C    7.086963   6.480153   5.093446   4.267082   5.181449
    14  C    6.522668   6.179810   4.901923   3.768073   4.343702
    15  C    5.181463   4.954602   3.780042   2.506937   2.962799
    16  H    4.050539   2.674093   2.179537   3.448580   4.607899
    17  H    1.099717   2.157963   3.427584   3.920981   3.409734
    18  H    2.158232   1.100498   2.170514   3.438714   3.891211
    19  H    3.409644   3.890400   3.432203   2.182629   1.099832
    20  H    2.169763   3.402433   3.898133   3.430681   2.155226
    21  H    5.840172   4.612897   3.437835   3.937607   5.351011
    22  H    8.186626   7.562132   6.166745   5.366796   6.256168
    23  H    7.310523   7.104647   5.887023   4.659858   5.002040
    24  H    5.039632   5.111528   4.156846   2.752034   2.639529
                    6          7          8          9         10
     6  C    0.000000
     7  C    4.233106   0.000000
     8  C    3.768107   2.837102   0.000000
     9  C    4.901941   2.428999   1.415672   0.000000
    10  C    5.068298   1.357092   2.467125   1.435077   0.000000
    11  C    6.179917   3.711820   2.448713   1.413443   2.470002
    12  H    7.071483   4.035607   3.438866   2.170718   2.682345
    13  C    6.522710   4.854676   2.821336   2.426265   3.734997
    14  C    5.724378   5.068234   2.433243   2.797954   4.233020
    15  C    4.343743   4.250289   1.414332   2.429740   3.747543
    16  H    4.844436   1.100821   3.937612   3.437949   2.145152
    17  H    2.171514   4.626132   5.366790   6.166734   5.831241
    18  H    3.414381   2.682159   4.638025   4.865018   4.035421
    19  H    2.142746   4.644401   2.752125   4.156906   4.920148
    20  H    1.100117   5.333186   4.659753   5.886931   6.146126
    21  H    6.145448   2.144960   3.448706   2.179746   1.100818
    22  H    7.607493   5.831198   3.920987   3.427566   4.626072
    23  H    6.369978   6.146110   3.430718   3.898044   5.333096
    24  H    3.964303   4.920080   2.182569   3.432146   4.644344
                   11         12         13         14         15
    11  C    0.000000
    12  H    1.100495   0.000000
    13  C    1.379863   2.158113   0.000000
    14  C    2.410331   3.414329   1.406078   0.000000
    15  C    2.790858   3.891311   2.418745   1.381192   0.000000
    16  H    4.613055   4.749538   5.840249   6.145448   5.351051
    17  H    7.562189   8.273381   8.186618   7.607447   6.256177
    18  H    6.253248   6.698809   7.220133   7.071263   5.915100
    19  H    5.111716   6.158672   5.039785   3.964422   2.639659
    20  H    7.104624   8.044096   7.310397   6.369783   5.001878
    21  H    2.674339   2.413798   4.050750   4.844606   4.608104
    22  H    2.157932   2.497942   1.099725   2.171540   3.409758
    23  H    3.402327   4.317371   2.169618   1.100114   2.155302
    24  H    3.890506   4.990993   3.409756   2.142844   1.099833
                   16         17         18         19         20
    16  H    0.000000
    17  H    4.751755   0.000000
    18  H    2.413303   2.498131   0.000000
    19  H    5.583540   4.306626   4.990890   0.000000
    20  H    5.924519   2.490551   4.317605   2.467558   0.000000
    21  H    2.497593   6.765563   4.749119   6.002586   7.230197
    22  H    6.765681   9.286262   8.273169   6.049393   8.370214
    23  H    7.230228   8.370346   8.044001   4.410813   6.876751
    24  H    6.002462   6.049239   6.158432   1.943375   4.410474
                   21         22         23         24
    21  H    0.000000
    22  H    4.752002   0.000000
    23  H    5.924645   2.490327   0.000000
    24  H    5.583653   4.306750   2.467898   0.000000
 Stoichiometry    C14H10
 Framework group  C1[X(C14H10)]
 Deg. of freedom    66
 Full point group                 C1      NOp   1
 Largest Abelian subgroup         C1      NOp   1
 Largest concise Abelian subgroup C1      NOp   1
                         Standard orientation:                         
 ---------------------------------------------------------------------
 Center     Atomic      Atomic             Coordinates (Angstroms)
 Number     Number       Type             X           Y           Z
 ---------------------------------------------------------------------
      1          6           0        3.543491   -0.301146    0.000604
      2          6           0        2.828319    0.878950    0.001839
      3          6           0        1.415015    0.863571    0.000374
      4          6           0        0.723031   -0.371483   -0.000315
      5          6           0        1.481413   -1.565260   -0.001120
      6          6           0        2.862222   -1.531132   -0.001144
      7          6           0        0.678510    2.095241   -0.000007
      8          6           0       -0.723014   -0.371514   -0.000317
      9          6           0       -1.415016    0.863500   -0.000784
     10          6           0       -0.678581    2.095210   -0.001078
     11          6           0       -2.828375    0.878947   -0.000461
     12          1           0       -3.349530    1.848219   -0.000798
     13          6           0       -3.543472   -0.301162    0.000529
     14          6           0       -2.862155   -1.531146    0.001098
     15          6           0       -1.481386   -1.565334    0.000531
     16          1           0        1.248890    3.036768    0.000315
     17          1           0        4.643136   -0.288629    0.000891
     18          1           0        3.349278    1.848328    0.003276
     19          1           0        0.971782   -2.539890   -0.001956
     20          1           0        3.438302   -2.468356   -0.002393
     21          1           0       -1.248702    3.036891   -0.001721
     22          1           0       -4.643126   -0.288677    0.000896
     23          1           0       -3.438448   -2.468235    0.001934
     24          1           0       -0.971591   -2.539881    0.001066
 ---------------------------------------------------------------------
 Rotational constants (GHZ):           1.6131996           0.5558416           0.4134009
 Leave Link  202 at Tue Mar 26 13:19:11 2024, MaxMem= 33554432000 cpu:               0.7 elap:               0.1
 (Enter /apps/gaussian/g16-c01-avx2/g16/l301.exe)
 Standard basis: def2TZVP (5D, 7F)
 Ernie: Thresh=  0.10000D-02 Tol=  0.10000D-05 Strict=F.
 There are   564 symmetry adapted cartesian basis functions of A   symmetry.
 There are   494 symmetry adapted basis functions of A   symmetry.
   494 basis functions,   794 primitive gaussians,   564 cartesian basis functions
    47 alpha electrons       47 beta electrons
       nuclear repulsion energy       775.9882839826 Hartrees.
 IExCor=  402 DFT=T Ex+Corr=B3LYP ExCW=0 ScaHFX=  0.200000
 ScaDFX=  0.800000  0.720000  1.000000  0.810000 ScalE2=  1.000000  1.000000
 IRadAn=      5 IRanWt=     -1 IRanGd=            0 ICorTp=0 IEmpDi=  4
 NAtoms=   24 NActive=   24 NUniq=   24 SFac= 1.00D+00 NAtFMM=   60 NAOKFM=F Big=F
 Integral buffers will be    131072 words long.
 Raffenetti 2 integral format.
 Two-electron integral symmetry is turned on.
 Leave Link  301 at Tue Mar 26 13:19:12 2024, MaxMem= 33554432000 cpu:               0.9 elap:               0.1
 (Enter /apps/gaussian/g16-c01-avx2/g16/l302.exe)
 NPDir=0 NMtPBC=     1 NCelOv=     1 NCel=       1 NClECP=     1 NCelD=      1
         NCelK=      1 NCelE2=     1 NClLst=     1 CellRange=     0.0.
 One-electron integrals computed using PRISM.
 One-electron integral symmetry used in STVInt
   1 Symmetry operations used in ECPInt.
 ECPInt:  NShTT=   18915 NPrTT=   58308 LenC2=   17798 LenP2D=   41468.
 LDataN:  DoStor=T MaxTD1= 6 Len=  172
 NBasis=   494 RedAO= T EigKep=  4.40D-06  NBF=   494
 NBsUse=   494 1.00D-06 EigRej= -1.00D+00 NBFU=   494
 Precomputing XC quadrature grid using
 IXCGrd= 4 IRadAn=           5 IRanWt=          -1 IRanGd=           0 AccXCQ= 0.00D+00.
 Generated NRdTot=       0 NPtTot=           0 NUsed=           0 NTot=          32
 NSgBfM=   559   559   559   559   559 MxSgAt=    24 MxSgA2=    24.
 Leave Link  302 at Tue Mar 26 13:19:13 2024, MaxMem= 33554432000 cpu:              15.4 elap:               0.5
 (Enter /apps/gaussian/g16-c01-avx2/g16/l303.exe)
 DipDrv:  MaxL=1.
 Leave Link  303 at Tue Mar 26 13:19:14 2024, MaxMem= 33554432000 cpu:               1.8 elap:               0.1
 (Enter /apps/gaussian/g16-c01-avx2/g16/l401.exe)
 ExpMin= 9.52D-02 ExpMax= 1.36D+04 ExpMxC= 4.63D+02 IAcc=3 IRadAn=         5 AccDes= 0.00D+00
 Harris functional with IExCor=  402 and IRadAn=       5 diagonalized for initial guess.
 HarFok:  IExCor=  402 AccDes= 0.00D+00 IRadAn=         5 IDoV= 1 UseB2=F ITyADJ=14
 ICtDFT=  3500011 ScaDFX=  1.000000  1.000000  1.000000  1.000000
 FoFCou: FMM=F IPFlag=           0 FMFlag=      100000 FMFlg1=           0
         NFxFlg=           0 DoJE=T BraDBF=F KetDBF=T FulRan=T
         wScrn=  0.000000 ICntrl=       500 IOpCl=  0 I1Cent=   200000004 NGrid=           0
         NMat0=    1 NMatS0=      1 NMatT0=    0 NMatD0=    1 NMtDS0=    0 NMtDT0=    0
 Petite list used in FoFCou.
 Harris En= -539.773477284716    
 JPrj=0 DoOrth=F DoCkMO=F.
 Leave Link  401 at Tue Mar 26 13:19:15 2024, MaxMem= 33554432000 cpu:              31.2 elap:               1.0
 (Enter /apps/gaussian/g16-c01-avx2/g16/l502.exe)
 Integral symmetry usage will be decided dynamically.
 Closed shell SCF:
 Using DIIS extrapolation, IDIIS=  1040.
 NGot= 33554432000 LenX= 33553772274 LenY= 33553453614
 Requested convergence on RMS density matrix=1.00D-08 within 128 cycles.
 Requested convergence on MAX density matrix=1.00D-06.
 Requested convergence on             energy=1.00D-06.
 No special actions if energy rises.
 Fock matrices will be formed incrementally for  20 cycles.
 Integral accuracy reduced to 1.0D-05 until final iterations.

 Cycle   1  Pass 0  IDiag  1:
 FoFJK:  IHMeth= 1 ICntrl=       0 DoSepK=F KAlg= 0 I1Cent=           0 FoldK=F
 IRaf= 890000000 NMat=       1 IRICut=       1 DoRegI=T DoRafI=F ISym2E= 0 IDoP0=0 IntGTp=1.
 FoFCou: FMM=F IPFlag=           0 FMFlag=      100000 FMFlg1=           0
         NFxFlg=           0 DoJE=F BraDBF=F KetDBF=F FulRan=T
         wScrn=  0.000000 ICntrl=         0 IOpCl=  0 I1Cent=           0 NGrid=           0
         NMat0=    1 NMatS0=      1 NMatT0=    0 NMatD0=    1 NMtDS0=    0 NMtDT0=    0
 Symmetry not used in FoFCou.
 E= -539.400780931093    
 DIIS: error= 3.14D-02 at cycle   1 NSaved=   1.
 NSaved= 1 IEnMin= 1 EnMin= -539.400780931093     IErMin= 1 ErrMin= 3.14D-02
 ErrMax= 3.14D-02  0.00D+00 EMaxC= 1.00D-01 BMatC= 3.20D-01 BMatP= 3.20D-01
 IDIUse=3 WtCom= 6.86D-01 WtEn= 3.14D-01
 Coeff-Com:  0.100D+01
 Coeff-En:   0.100D+01
 Coeff:      0.100D+01
 Gap=     0.174 Goal=   None    Shift=    0.000
 GapD=    0.174 DampG=1.000 DampE=0.500 DampFc=0.5000 IDamp=-1.
 Damping current iteration by 5.00D-01
 RMSDP=3.26D-03 MaxDP=5.70D-02              OVMax= 1.68D-01

 Cycle   2  Pass 0  IDiag  1:
 RMSU=  1.60D-03    CP:  9.57D-01
 E= -539.551584352381     Delta-E=       -0.150803421288 Rises=F Damp=T
 DIIS: error= 4.84D-03 at cycle   2 NSaved=   2.
 NSaved= 2 IEnMin= 2 EnMin= -539.551584352381     IErMin= 2 ErrMin= 4.84D-03
 ErrMax= 4.84D-03  0.00D+00 EMaxC= 1.00D-01 BMatC= 1.76D-02 BMatP= 3.20D-01
 IDIUse=3 WtCom= 9.52D-01 WtEn= 4.84D-02
 Coeff-Com: -0.143D-01 0.101D+01
 Coeff-En:   0.332D-01 0.967D+00
 Coeff:     -0.120D-01 0.101D+01
 Gap=     0.181 Goal=   None    Shift=    0.000
 RMSDP=1.12D-03 MaxDP=4.01D-02 DE=-1.51D-01 OVMax= 9.31D-02

 Cycle   3  Pass 0  IDiag  1:
 RMSU=  1.10D-03    CP:  9.39D-01  8.96D-01
 E= -539.721189596087     Delta-E=       -0.169605243705 Rises=F Damp=F
 DIIS: error= 4.81D-03 at cycle   3 NSaved=   3.
 NSaved= 3 IEnMin= 3 EnMin= -539.721189596087     IErMin= 3 ErrMin= 4.81D-03
 ErrMax= 4.81D-03  0.00D+00 EMaxC= 1.00D-01 BMatC= 6.81D-03 BMatP= 1.76D-02
 IDIUse=3 WtCom= 9.52D-01 WtEn= 4.81D-02
 Coeff-Com: -0.679D-01 0.371D+00 0.697D+00
 Coeff-En:   0.000D+00 0.000D+00 0.100D+01
 Coeff:     -0.646D-01 0.353D+00 0.712D+00
 Gap=     0.174 Goal=   None    Shift=    0.000
 RMSDP=3.90D-04 MaxDP=8.67D-03 DE=-1.70D-01 OVMax= 1.75D-02

 Cycle   4  Pass 0  IDiag  1:
 RMSU=  3.23D-04    CP:  9.38D-01  1.03D+00  1.00D+00
 E= -539.727298543048     Delta-E=       -0.006108946962 Rises=F Damp=F
 DIIS: error= 1.81D-03 at cycle   4 NSaved=   4.
 NSaved= 4 IEnMin= 4 EnMin= -539.727298543048     IErMin= 4 ErrMin= 1.81D-03
 ErrMax= 1.81D-03  0.00D+00 EMaxC= 1.00D-01 BMatC= 1.07D-03 BMatP= 6.81D-03
 IDIUse=3 WtCom= 9.82D-01 WtEn= 1.81D-02
 Coeff-Com: -0.340D-01 0.122D+00 0.351D+00 0.560D+00
 Coeff-En:   0.000D+00 0.000D+00 0.355D-02 0.996D+00
 Coeff:     -0.334D-01 0.120D+00 0.345D+00 0.568D+00
 Gap=     0.174 Goal=   None    Shift=    0.000
 RMSDP=2.81D-04 MaxDP=7.88D-03 DE=-6.11D-03 OVMax= 9.97D-03

 Cycle   5  Pass 0  IDiag  1:
 RMSU=  2.04D-04    CP:  9.39D-01  1.13D+00  1.05D+00  1.27D+00
 E= -539.728214530606     Delta-E=       -0.000915987558 Rises=F Damp=F
 DIIS: error= 5.85D-04 at cycle   5 NSaved=   5.
 NSaved= 5 IEnMin= 5 EnMin= -539.728214530606     IErMin= 5 ErrMin= 5.85D-04
 ErrMax= 5.85D-04  0.00D+00 EMaxC= 1.00D-01 BMatC= 1.26D-04 BMatP= 1.07D-03
 IDIUse=3 WtCom= 9.94D-01 WtEn= 5.85D-03
 Coeff-Com: -0.102D-01 0.215D-01 0.969D-01 0.302D+00 0.590D+00
 Coeff-En:   0.000D+00 0.000D+00 0.000D+00 0.747D-01 0.925D+00
 Coeff:     -0.101D-01 0.214D-01 0.963D-01 0.300D+00 0.592D+00
 Gap=     0.174 Goal=   None    Shift=    0.000
 RMSDP=3.20D-04 MaxDP=8.97D-03 DE=-9.16D-04 OVMax= 4.03D-03

 Cycle   6  Pass 0  IDiag  1:
 RMSU=  1.19D-04    CP:  9.40D-01  1.23D+00  1.10D+00  1.75D+00  1.94D+00
 E= -539.728341723658     Delta-E=       -0.000127193052 Rises=F Damp=F
 DIIS: error= 1.88D-04 at cycle   6 NSaved=   6.
 NSaved= 6 IEnMin= 6 EnMin= -539.728341723658     IErMin= 6 ErrMin= 1.88D-04
 ErrMax= 1.88D-04  0.00D+00 EMaxC= 1.00D-01 BMatC= 6.29D-06 BMatP= 1.26D-04
 IDIUse=3 WtCom= 9.98D-01 WtEn= 1.88D-03
 Coeff-Com: -0.458D-02 0.812D-02 0.433D-01 0.149D+00 0.324D+00 0.479D+00
 Coeff-En:   0.000D+00 0.000D+00 0.000D+00 0.000D+00 0.000D+00 0.100D+01
 Coeff:     -0.457D-02 0.811D-02 0.432D-01 0.149D+00 0.324D+00 0.480D+00
 Gap=     0.173 Goal=   None    Shift=    0.000
 RMSDP=3.12D-04 MaxDP=9.42D-03 DE=-1.27D-04 OVMax= 1.16D-03

 Cycle   7  Pass 0  IDiag  1:
 RMSU=  4.68D-05    CP:  9.42D-01  1.32D+00  1.15D+00  2.20D+00  2.91D+00
                    CP:  1.98D+00
 E= -539.728351701453     Delta-E=       -0.000009977795 Rises=F Damp=F
 DIIS: error= 1.57D-04 at cycle   7 NSaved=   7.
 NSaved= 7 IEnMin= 7 EnMin= -539.728351701453     IErMin= 7 ErrMin= 1.57D-04
 ErrMax= 1.57D-04  0.00D+00 EMaxC= 1.00D-01 BMatC= 1.43D-06 BMatP= 6.29D-06
 IDIUse=3 WtCom= 9.98D-01 WtEn= 1.57D-03
 Coeff-Com: -0.180D-02 0.289D-02 0.170D-01 0.623D-01 0.143D+00 0.304D+00
 Coeff-Com:  0.473D+00
 Coeff-En:   0.000D+00 0.000D+00 0.000D+00 0.000D+00 0.000D+00 0.000D+00
 Coeff-En:   0.100D+01
 Coeff:     -0.180D-02 0.288D-02 0.170D-01 0.622D-01 0.142D+00 0.303D+00
 Coeff:      0.474D+00
 Gap=     0.173 Goal=   None    Shift=    0.000
 RMSDP=4.30D-04 MaxDP=1.40D-02 DE=-9.98D-06 OVMax= 3.51D-04

 Cycle   8  Pass 0  IDiag  1:
 RMSU=  2.64D-04    CP:  9.45D-01  1.43D+00  1.21D+00  2.78D+00  3.00D+00
                    CP:  3.00D+00  2.80D+00
 E= -539.728359051237     Delta-E=       -0.000007349784 Rises=F Damp=F
 DIIS: error= 2.02D-04 at cycle   8 NSaved=   8.
 NSaved= 8 IEnMin= 8 EnMin= -539.728359051237     IErMin= 7 ErrMin= 1.57D-04
 ErrMax= 2.02D-04  0.00D+00 EMaxC= 1.00D-01 BMatC= 1.32D-06 BMatP= 1.43D-06
 IDIUse=3 WtCom= 9.98D-01 WtEn= 1.57D-03
 Coeff-Com: -0.207D-02 0.319D-02 0.195D-01 0.726D-01 0.169D+00 0.385D+00
 Coeff-Com:  0.665D+00-0.312D+00
 Coeff-En:   0.000D+00 0.000D+00 0.000D+00 0.000D+00 0.000D+00 0.000D+00
 Coeff-En:   0.000D+00 0.100D+01
 Coeff:     -0.206D-02 0.319D-02 0.195D-01 0.725D-01 0.169D+00 0.384D+00
 Coeff:      0.664D+00-0.310D+00
 Gap=     0.173 Goal=   None    Shift=    0.000
 RMSDP=3.00D-04 MaxDP=9.94D-03 DE=-7.35D-06 OVMax= 2.27D-04

 Cycle   9  Pass 0  IDiag  1:
 RMSU=  2.40D-05    CP:  9.42D-01  1.36D+00  1.16D+00  2.39D+00  3.00D+00
                    CP:  2.39D+00  1.31D+00  2.31D-01
 E= -539.728354099611     Delta-E=        0.000004951626 Rises=F Damp=F
 DIIS: error= 1.74D-04 at cycle   9 NSaved=   9.
 NSaved= 9 IEnMin= 8 EnMin= -539.728359051237     IErMin= 7 ErrMin= 1.57D-04
 ErrMax= 1.74D-04  0.00D+00 EMaxC= 1.00D-01 BMatC= 1.13D-06 BMatP= 1.32D-06
 IDIUse=3 WtCom= 9.98D-01 WtEn= 1.57D-03
 Rare condition: small coef for last iteration:  0.000D+00
 Coeff-Com: -0.128D-02 0.157D-02 0.122D-01 0.490D-01 0.120D+00 0.341D+00
 Coeff-Com:  0.821D+00-0.162D+01 0.128D+01
 Coeff-En:   0.000D+00 0.000D+00 0.000D+00 0.000D+00 0.000D+00 0.000D+00
 Coeff-En:   0.000D+00 0.000D+00 0.100D+01
 Coeff:     -0.128D-02 0.157D-02 0.122D-01 0.490D-01 0.120D+00 0.341D+00
 Coeff:      0.821D+00-0.162D+01 0.128D+01
 Gap=     0.173 Goal=   None    Shift=    0.000
 RMSDP=4.52D-04 MaxDP=1.50D-02 DE= 4.95D-06 OVMax= 3.48D-04

 Cycle  10  Pass 0  IDiag  1:
 RMSU=  8.16D-05    CP:  9.38D-01  1.26D+00  1.07D+00  1.79D+00  1.98D+00
                    CP:  9.62D-01 -1.35D+00 -3.49D-02  3.00D+00
 E= -539.728347556066     Delta-E=        0.000006543545 Rises=F Damp=F
 DIIS: error= 1.55D-04 at cycle  10 NSaved=  10.
 NSaved=10 IEnMin= 8 EnMin= -539.728359051237     IErMin=10 ErrMin= 1.55D-04
 ErrMax= 1.55D-04  0.00D+00 EMaxC= 1.00D-01 BMatC= 7.77D-07 BMatP= 1.13D-06
 IDIUse=3 WtCom= 9.98D-01 WtEn= 1.55D-03
 Rare condition: small coef for last iteration:  0.000D+00
 Coeff-Com: -0.117D-02 0.147D-02 0.110D-01 0.442D-01 0.107D+00 0.296D+00
 Coeff-Com:  0.704D+00-0.155D+01 0.108D+01 0.311D+00
 Coeff-En:   0.000D+00 0.000D+00 0.000D+00 0.000D+00 0.000D+00 0.000D+00
 Coeff-En:   0.000D+00 0.000D+00 0.000D+00 0.100D+01
 Coeff:     -0.117D-02 0.147D-02 0.110D-01 0.442D-01 0.107D+00 0.296D+00
 Coeff:      0.704D+00-0.155D+01 0.108D+01 0.311D+00
 Gap=     0.173 Goal=   None    Shift=    0.000
 RMSDP=8.62D-05 MaxDP=3.11D-03 DE= 6.54D-06 OVMax= 4.15D-05

 Cycle  11  Pass 0  IDiag  1:
 RMSU=  2.73D-05    CP:  9.37D-01  1.24D+00  1.05D+00  1.69D+00  1.79D+00
                    CP:  8.29D-01 -1.95D+00 -4.65D-02  3.00D+00  1.48D+00
 E= -539.728348996327     Delta-E=       -0.000001440260 Rises=F Damp=F
 DIIS: error= 1.79D-04 at cycle  11 NSaved=  11.
 NSaved=11 IEnMin= 8 EnMin= -539.728359051237     IErMin=10 ErrMin= 1.55D-04
 ErrMax= 1.79D-04  0.00D+00 EMaxC= 1.00D-01 BMatC= 8.61D-07 BMatP= 7.77D-07
 IDIUse=3 WtCom= 9.98D-01 WtEn= 1.55D-03
 Coeff-Com: -0.117D-02 0.149D-02 0.110D-01 0.441D-01 0.107D+00 0.295D+00
 Coeff-Com:  0.696D+00-0.149D+01 0.109D+01 0.879D+00-0.627D+00
 Coeff-En:   0.000D+00 0.000D+00 0.000D+00 0.000D+00 0.000D+00 0.000D+00
 Coeff-En:   0.000D+00 0.000D+00 0.000D+00 0.000D+00 0.100D+01
 Coeff:     -0.117D-02 0.149D-02 0.110D-01 0.441D-01 0.107D+00 0.294D+00
 Coeff:      0.695D+00-0.149D+01 0.109D+01 0.878D+00-0.625D+00
 Gap=     0.173 Goal=   None    Shift=    0.000
 RMSDP=4.76D-05 MaxDP=1.24D-03 DE=-1.44D-06 OVMax= 2.47D-05

 Cycle  12  Pass 0  IDiag  1:
 RMSU=  3.11D-05    CP:  9.37D-01  1.24D+00  1.06D+00  1.70D+00  1.83D+00
                    CP:  9.23D-01 -1.62D+00 -4.27D-02  3.00D+00  1.18D+00
                    CP:  6.47D-01
 E= -539.728347919337     Delta-E=        0.000001076990 Rises=F Damp=F
 DIIS: error= 1.71D-04 at cycle  12 NSaved=  12.
 NSaved=12 IEnMin= 8 EnMin= -539.728359051237     IErMin=10 ErrMin= 1.55D-04
 ErrMax= 1.71D-04  0.00D+00 EMaxC= 1.00D-01 BMatC= 7.56D-07 BMatP= 7.77D-07
 IDIUse=3 WtCom= 9.98D-01 WtEn= 1.55D-03
 Rare condition: small coef for last iteration:  0.000D+00
 Coeff-Com: -0.103D-02 0.140D-02 0.965D-02 0.379D-01 0.900D-01 0.233D+00
 Coeff-Com:  0.498D+00-0.717D+00 0.538D+00 0.175D+01-0.372D+01 0.228D+01
 Coeff-En:   0.000D+00 0.000D+00 0.000D+00 0.000D+00 0.000D+00 0.000D+00
 Coeff-En:   0.000D+00 0.000D+00 0.000D+00 0.000D+00 0.000D+00 0.100D+01
 Coeff:     -0.103D-02 0.140D-02 0.965D-02 0.379D-01 0.900D-01 0.233D+00
 Coeff:      0.498D+00-0.717D+00 0.538D+00 0.175D+01-0.372D+01 0.228D+01
 Gap=     0.173 Goal=   None    Shift=    0.000
 RMSDP=3.37D-04 MaxDP=1.44D-02 DE= 1.08D-06 OVMax= 2.14D-04

 Cycle  13  Pass 0  IDiag  1:
 RMSU=  8.61D-05    CP:  9.40D-01  1.32D+00  1.12D+00  2.07D+00  2.69D+00
                    CP:  1.83D+00  1.32D-01 -2.23D-02  2.44D+00 -8.60D-02
                    CP: -1.44D+00  3.00D+00
 E= -539.728347939219     Delta-E=       -0.000000019882 Rises=F Damp=F
 DIIS: error= 1.30D-04 at cycle  13 NSaved=  13.
 NSaved=13 IEnMin= 8 EnMin= -539.728359051237     IErMin=13 ErrMin= 1.30D-04
 ErrMax= 1.30D-04  0.00D+00 EMaxC= 1.00D-01 BMatC= 5.56D-07 BMatP= 7.56D-07
 IDIUse=3 WtCom= 9.99D-01 WtEn= 1.30D-03
 Coeff-Com: -0.940D-03 0.144D-02 0.883D-02 0.333D-01 0.770D-01 0.176D+00
 Coeff-Com:  0.323D+00-0.298D+00 0.175D+00 0.139D+01-0.291D+01 0.974D+00
 Coeff-Com:  0.105D+01
 Coeff-En:   0.000D+00 0.000D+00 0.000D+00 0.000D+00 0.000D+00 0.000D+00
 Coeff-En:   0.000D+00 0.000D+00 0.000D+00 0.000D+00 0.000D+00 0.000D+00
 Coeff-En:   0.100D+01
 Coeff:     -0.938D-03 0.144D-02 0.882D-02 0.333D-01 0.769D-01 0.176D+00
 Coeff:      0.322D+00-0.298D+00 0.175D+00 0.138D+01-0.290D+01 0.973D+00
 Coeff:      0.105D+01
 Gap=     0.173 Goal=   None    Shift=    0.000
 RMSDP=3.10D-04 MaxDP=1.53D-02 DE=-1.99D-08 OVMax= 2.01D-04

 Cycle  14  Pass 0  IDiag  1:
 RMSU=  8.69D-05    CP:  9.42D-01  1.39D+00  1.14D+00  2.41D+00  3.00D+00
                    CP:  2.78D+00  1.40D+00  3.06D-01  3.00D+00 -1.16D+00
                    CP: -2.48D+00  3.00D+00  2.37D+00
 E= -539.728347870436     Delta-E=        0.000000068783 Rises=F Damp=F
 DIIS: error= 1.33D-04 at cycle  14 NSaved=  14.
 NSaved=14 IEnMin= 8 EnMin= -539.728359051237     IErMin=13 ErrMin= 1.30D-04
 ErrMax= 1.33D-04  0.00D+00 EMaxC= 1.00D-01 BMatC= 7.21D-07 BMatP= 5.56D-07
 IDIUse=3 WtCom= 9.99D-01 WtEn= 1.30D-03
 Rare condition: small coef for last iteration:  0.000D+00
 Coeff-Com: -0.950D-03 0.147D-02 0.893D-02 0.334D-01 0.771D-01 0.173D+00
 Coeff-Com:  0.301D+00-0.182D+00 0.971D-01 0.134D+01-0.292D+01 0.949D+00
 Coeff-Com:  0.106D+01 0.698D-01
 Coeff-En:   0.000D+00 0.000D+00 0.000D+00 0.000D+00 0.000D+00 0.000D+00
 Coeff-En:   0.000D+00 0.000D+00 0.000D+00 0.000D+00 0.000D+00 0.000D+00
 Coeff-En:   0.000D+00 0.100D+01
 Coeff:     -0.950D-03 0.147D-02 0.893D-02 0.334D-01 0.771D-01 0.173D+00
 Coeff:      0.301D+00-0.182D+00 0.971D-01 0.134D+01-0.292D+01 0.949D+00
 Coeff:      0.106D+01 0.698D-01
 Gap=     0.173 Goal=   None    Shift=    0.000
 RMSDP=9.03D-05 MaxDP=4.03D-03 DE= 6.88D-08 OVMax= 5.92D-05

 Cycle  15  Pass 0  IDiag  1:
 RMSU=  8.23D-06    CP:  9.43D-01  1.42D+00  1.15D+00  2.52D+00  3.00D+00
                    CP:  3.00D+00  1.89D+00  5.16D-01  3.00D+00 -1.38D+00
                    CP: -2.72D+00  3.00D+00  2.56D+00  1.13D+00
 E= -539.728348247724     Delta-E=       -0.000000377289 Rises=F Damp=F
 DIIS: error= 1.41D-04 at cycle  15 NSaved=  15.
 NSaved=15 IEnMin= 8 EnMin= -539.728359051237     IErMin=13 ErrMin= 1.30D-04
 ErrMax= 1.41D-04  0.00D+00 EMaxC= 1.00D-01 BMatC= 7.83D-07 BMatP= 5.56D-07
 IDIUse=3 WtCom= 9.99D-01 WtEn= 1.30D-03
 Coeff-Com: -0.832D-03 0.134D-02 0.778D-02 0.288D-01 0.650D-01 0.134D+00
 Coeff-Com:  0.207D+00-0.170D+00 0.832D-01 0.182D+01-0.284D+01 0.414D+00
 Coeff-Com:  0.102D+01 0.265D+01-0.242D+01
 Coeff-En:   0.000D+00 0.000D+00 0.000D+00 0.000D+00 0.000D+00 0.000D+00
 Coeff-En:   0.000D+00 0.000D+00 0.000D+00 0.000D+00 0.000D+00 0.000D+00
 Coeff-En:   0.000D+00 0.000D+00 0.100D+01
 Coeff:     -0.831D-03 0.134D-02 0.777D-02 0.288D-01 0.649D-01 0.133D+00
 Coeff:      0.207D+00-0.170D+00 0.831D-01 0.182D+01-0.284D+01 0.413D+00
 Coeff:      0.102D+01 0.265D+01-0.241D+01
 Gap=     0.173 Goal=   None    Shift=    0.000
 RMSDP=1.47D-04 MaxDP=5.99D-03 DE=-3.77D-07 OVMax= 9.83D-05

 Cycle  16  Pass 0  IDiag  1:
 RMSU=  3.71D-05    CP:  9.42D-01  1.39D+00  1.13D+00  2.37D+00  3.00D+00
                    CP:  2.62D+00  1.05D+00  1.57D-01  3.00D+00 -1.06D+00
                    CP: -2.94D+00  3.00D+00  2.36D+00  9.34D-01 -2.61D+00
 E= -539.728347399070     Delta-E=        0.000000848655 Rises=F Damp=F
 DIIS: error= 1.25D-04 at cycle  16 NSaved=  16.
 NSaved=16 IEnMin= 8 EnMin= -539.728359051237     IErMin=16 ErrMin= 1.25D-04
 ErrMax= 1.25D-04  0.00D+00 EMaxC= 1.00D-01 BMatC= 6.46D-07 BMatP= 5.56D-07
 IDIUse=3 WtCom= 9.99D-01 WtEn= 1.30D-03
 Rare condition: small coef for last iteration:  0.000D+00
 Coeff-Com: -0.755D-03 0.120D-02 0.703D-02 0.264D-01 0.614D-01 0.137D+00
 Coeff-Com:  0.240D+00-0.370D+00 0.158D+00 0.143D+01-0.227D+01 0.382D+00
 Coeff-Com:  0.814D+00 0.143D+01-0.350D+01 0.246D+01
 Coeff-En:   0.000D+00 0.000D+00 0.000D+00 0.000D+00 0.000D+00 0.000D+00
 Coeff-En:   0.000D+00 0.000D+00 0.000D+00 0.000D+00 0.000D+00 0.000D+00
 Coeff-En:   0.000D+00 0.000D+00 0.000D+00 0.100D+01
 Coeff:     -0.755D-03 0.120D-02 0.703D-02 0.264D-01 0.614D-01 0.137D+00
 Coeff:      0.240D+00-0.370D+00 0.158D+00 0.143D+01-0.227D+01 0.382D+00
 Coeff:      0.814D+00 0.143D+01-0.350D+01 0.246D+01
 Gap=     0.173 Goal=   None    Shift=    0.000
 RMSDP=3.13D-04 MaxDP=1.17D-02 DE= 8.49D-07 OVMax= 2.35D-04

 Cycle  17  Pass 0  IDiag  1:
 RMSU=  7.67D-05    CP:  9.40D-01  1.34D+00  1.09D+00  2.04D+00  2.33D+00
                    CP:  1.70D+00 -5.59D-01 -3.61D-02  3.00D+00 -4.42D-01
                    CP: -3.00D+00  3.00D+00  1.92D+00  2.86D-01 -3.00D+00
                    CP:  3.00D+00
 E= -539.728344786581     Delta-E=        0.000002612489 Rises=F Damp=F
 DIIS: error= 1.07D-04 at cycle  17 NSaved=  17.
 NSaved=17 IEnMin= 8 EnMin= -539.728359051237     IErMin=17 ErrMin= 1.07D-04
 ErrMax= 1.07D-04  0.00D+00 EMaxC= 1.00D-01 BMatC= 8.61D-07 BMatP= 5.56D-07
 IDIUse=3 WtCom= 9.99D-01 WtEn= 1.30D-03
 Rare condition: small coef for last iteration:  0.000D+00
 Coeff-Com: -0.569D-03 0.897D-03 0.539D-02 0.199D-01 0.464D-01 0.105D+00
 Coeff-Com:  0.209D+00-0.666D+00 0.312D+00 0.843D+00-0.106D+01-0.432D+00
 Coeff-Com:  0.988D+00 0.324D+01-0.681D+01 0.343D+01 0.764D+00
 Coeff-En:   0.000D+00 0.000D+00 0.000D+00 0.000D+00 0.000D+00 0.748D-01
 Coeff-En:   0.000D+00 0.000D+00 0.000D+00 0.000D+00 0.000D+00 0.000D+00
 Coeff-En:   0.000D+00 0.000D+00 0.000D+00 0.000D+00 0.925D+00
 Coeff:     -0.569D-03 0.897D-03 0.539D-02 0.199D-01 0.464D-01 0.105D+00
 Coeff:      0.209D+00-0.666D+00 0.312D+00 0.843D+00-0.106D+01-0.432D+00
 Coeff:      0.988D+00 0.324D+01-0.681D+01 0.343D+01 0.764D+00
 Gap=     0.173 Goal=   None    Shift=    0.000
 RMSDP=5.79D-04 MaxDP=1.78D-02 DE= 2.61D-06 OVMax= 5.01D-04

 Problem detected with inexpensive integrals.
 Switching to full accuracy and repeating last cycle.
 Cycle  18  Pass 1  IDiag  1:
 E= -539.728272666922     Delta-E=        0.000072119659 Rises=F Damp=F
 DIIS: error= 9.15D-04 at cycle   1 NSaved=   1.
 NSaved= 1 IEnMin= 1 EnMin= -539.728272666922     IErMin= 1 ErrMin= 9.15D-04
 ErrMax= 9.15D-04  0.00D+00 EMaxC= 1.00D-01 BMatC= 4.92D-05 BMatP= 4.92D-05
 IDIUse=3 WtCom= 9.91D-01 WtEn= 9.15D-03
 Coeff-Com:  0.100D+01
 Coeff-En:   0.100D+01
 Coeff:      0.100D+01
 Gap=     0.173 Goal=   None    Shift=    0.000
 RMSDP=2.36D-03 MaxDP=7.08D-02 DE= 7.21D-05 OVMax= 1.69D-03

 Cycle  19  Pass 1  IDiag  1:
 RMSU=  2.23D-03    CP:  8.94D-01
 E= -539.728304113555     Delta-E=       -0.000031446633 Rises=F Damp=F
 DIIS: error= 8.12D-05 at cycle   2 NSaved=   2.
 NSaved= 2 IEnMin= 2 EnMin= -539.728304113555     IErMin= 2 ErrMin= 8.12D-05
 ErrMax= 8.12D-05  0.00D+00 EMaxC= 1.00D-01 BMatC= 7.43D-07 BMatP= 4.92D-05
 IDIUse=1 WtCom= 1.00D+00 WtEn= 0.00D+00
 Coeff-Com:  0.142D-01 0.986D+00
 Coeff:      0.142D-01 0.986D+00
 Gap=     0.173 Goal=   None    Shift=    0.000
 RMSDP=3.39D-05 MaxDP=7.79D-04 DE=-3.14D-05 OVMax= 1.01D-03

 Cycle  20  Pass 1  IDiag  1:
 RMSU=  2.34D-05    CP:  8.93D-01  1.01D+00
 E= -539.728300727315     Delta-E=        0.000003386240 Rises=F Damp=F
 DIIS: error= 1.81D-04 at cycle   3 NSaved=   3.
 NSaved= 3 IEnMin= 2 EnMin= -539.728304113555     IErMin= 2 ErrMin= 8.12D-05
 ErrMax= 1.81D-04  0.00D+00 EMaxC= 1.00D-01 BMatC= 3.72D-06 BMatP= 7.43D-07
 IDIUse=3 WtCom= 4.26D-01 WtEn= 5.74D-01
 Coeff-Com: -0.497D-02 0.694D+00 0.311D+00
 Coeff-En:   0.000D+00 0.775D+00 0.225D+00
 Coeff:     -0.212D-02 0.741D+00 0.262D+00
 Gap=     0.173 Goal=   None    Shift=    0.000
 RMSDP=2.75D-06 MaxDP=1.11D-04 DE= 3.39D-06 OVMax= 5.83D-04

 Cycle  21  Pass 1  IDiag  1:
 RMSU=  2.70D-06    CP:  8.93D-01  1.01D+00  9.99D-01
 E= -539.728304857477     Delta-E=       -0.000004130161 Rises=F Damp=F
 DIIS: error= 2.89D-05 at cycle   4 NSaved=   4.
 NSaved= 4 IEnMin= 4 EnMin= -539.728304857477     IErMin= 4 ErrMin= 2.89D-05
 ErrMax= 2.89D-05  0.00D+00 EMaxC= 1.00D-01 BMatC= 9.22D-08 BMatP= 7.43D-07
 IDIUse=1 WtCom= 1.00D+00 WtEn= 0.00D+00
 Coeff-Com: -0.178D-02 0.243D+00-0.123D-01 0.771D+00
 Coeff:     -0.178D-02 0.243D+00-0.123D-01 0.771D+00
 Gap=     0.173 Goal=   None    Shift=    0.000
 RMSDP=6.47D-07 MaxDP=2.29D-05 DE=-4.13D-06 OVMax= 1.15D-04

 Cycle  22  Pass 1  IDiag  1:
 RMSU=  1.05D-07    CP:  8.93D-01  1.01D+00  1.01D+00  1.21D+00
 E= -539.728304962448     Delta-E=       -0.000000104972 Rises=F Damp=F
 DIIS: error= 9.48D-07 at cycle   5 NSaved=   5.
 NSaved= 5 IEnMin= 5 EnMin= -539.728304962448     IErMin= 5 ErrMin= 9.48D-07
 ErrMax= 9.48D-07  0.00D+00 EMaxC= 1.00D-01 BMatC= 2.70D-10 BMatP= 9.22D-08
 IDIUse=1 WtCom= 1.00D+00 WtEn= 0.00D+00
 Coeff-Com: -0.463D-04 0.354D-02-0.698D-01 0.455D+00 0.611D+00
 Coeff:     -0.463D-04 0.354D-02-0.698D-01 0.455D+00 0.611D+00
 Gap=     0.173 Goal=   None    Shift=    0.000
 RMSDP=1.53D-07 MaxDP=3.90D-06 DE=-1.05D-07 OVMax= 5.73D-06

 Cycle  23  Pass 1  IDiag  1:
 RMSU=  4.78D-08    CP:  8.93D-01  1.01D+00  1.01D+00  1.22D+00  1.28D+00
 E= -539.728304962698     Delta-E=       -0.000000000250 Rises=F Damp=F
 DIIS: error= 2.50D-07 at cycle   6 NSaved=   6.
 NSaved= 6 IEnMin= 6 EnMin= -539.728304962698     IErMin= 6 ErrMin= 2.50D-07
 ErrMax= 2.50D-07  0.00D+00 EMaxC= 1.00D-01 BMatC= 9.81D-12 BMatP= 2.70D-10
 IDIUse=1 WtCom= 1.00D+00 WtEn= 0.00D+00
 Coeff-Com:  0.138D-04-0.345D-02-0.391D-01 0.240D+00 0.345D+00 0.457D+00
 Coeff:      0.138D-04-0.345D-02-0.391D-01 0.240D+00 0.345D+00 0.457D+00
 Gap=     0.173 Goal=   None    Shift=    0.000
 RMSDP=1.04D-08 MaxDP=2.67D-07 DE=-2.50D-10 OVMax= 1.41D-06

 Cycle  24  Pass 1  IDiag  1:
 RMSU=  6.00D-09    CP:  8.93D-01  1.01D+00  1.01D+00  1.22D+00  1.32D+00
                    CP:  9.83D-01
 E= -539.728304962711     Delta-E=       -0.000000000012 Rises=F Damp=F
 DIIS: error= 9.59D-08 at cycle   7 NSaved=   7.
 NSaved= 7 IEnMin= 7 EnMin= -539.728304962711     IErMin= 7 ErrMin= 9.59D-08
 ErrMax= 9.59D-08  0.00D+00 EMaxC= 1.00D-01 BMatC= 8.79D-13 BMatP= 9.81D-12
 IDIUse=1 WtCom= 1.00D+00 WtEn= 0.00D+00
 Coeff-Com:  0.111D-04-0.224D-02-0.173D-01 0.105D+00 0.155D+00 0.283D+00
 Coeff-Com:  0.476D+00
 Coeff:      0.111D-04-0.224D-02-0.173D-01 0.105D+00 0.155D+00 0.283D+00
 Coeff:      0.476D+00
 Gap=     0.173 Goal=   None    Shift=    0.000
 RMSDP=2.60D-09 MaxDP=7.83D-08 DE=-1.23D-11 OVMax= 5.05D-07

 SCF Done:  E(RB3LYP) =  -539.728304963     A.U. after   24 cycles
            NFock= 24  Conv=0.26D-08     -V/T= 2.0058
 KE= 5.365949441242D+02 PE=-2.803224870765D+03 EE= 9.509133376955D+02
 Leave Link  502 at Tue Mar 26 13:20:26 2024, MaxMem= 33554432000 cpu:            2239.5 elap:              70.6
 (Enter /apps/gaussian/g16-c01-avx2/g16/l601.exe)
 Copying SCF densities to generalized density rwf, IOpCl= 0 IROHF=0.

 **********************************************************************

            Population analysis using the SCF Density.

 **********************************************************************

 Orbital symmetries:
       Occupied  (A) (A) (A) (A) (A) (A) (A) (A) (A) (A) (A) (A)
                 (A) (A) (A) (A) (A) (A) (A) (A) (A) (A) (A) (A)
                 (A) (A) (A) (A) (A) (A) (A) (A) (A) (A) (A) (A)
                 (A) (A) (A) (A) (A) (A) (A) (A) (A) (A) (A)
       Virtual   (A) (A) (A) (A) (A) (A) (A) (A) (A) (A) (A) (A)
                 (A) (A) (A) (A) (A) (A) (A) (A) (A) (A) (A) (A)
                 (A) (A) (A) (A) (A) (A) (A) (A) (A) (A) (A) (A)
                 (A) (A) (A) (A) (A) (A) (A) (A) (A) (A) (A) (A)
                 (A) (A) (A) (A) (A) (A) (A) (A) (A) (A) (A) (A)
                 (A) (A) (A) (A) (A) (A) (A) (A) (A) (A) (A) (A)
                 (A) (A) (A) (A) (A) (A) (A) (A) (A) (A) (A) (A)
                 (A) (A) (A) (A) (A) (A) (A) (A) (A) (A) (A) (A)
                 (A) (A) (A) (A) (A) (A) (A) (A) (A) (A) (A) (A)
                 (A) (A) (A) (A) (A) (A) (A) (A) (A) (A) (A) (A)
                 (A) (A) (A) (A) (A) (A) (A) (A) (A) (A) (A) (A)
                 (A) (A) (A) (A) (A) (A) (A) (A) (A) (A) (A) (A)
                 (A) (A) (A) (A) (A) (A) (A) (A) (A) (A) (A) (A)
                 (A) (A) (A) (A) (A) (A) (A) (A) (A) (A) (A) (A)
                 (A) (A) (A) (A) (A) (A) (A) (A) (A) (A) (A) (A)
                 (A) (A) (A) (A) (A) (A) (A) (A) (A) (A) (A) (A)
                 (A) (A) (A) (A) (A) (A) (A) (A) (A) (A) (A) (A)
                 (A) (A) (A) (A) (A) (A) (A) (A) (A) (A) (A) (A)
                 (A) (A) (A) (A) (A) (A) (A) (A) (A) (A) (A) (A)
                 (A) (A) (A) (A) (A) (A) (A) (A) (A) (A) (A) (A)
                 (A) (A) (A) (A) (A) (A) (A) (A) (A) (A) (A) (A)
                 (A) (A) (A) (A) (A) (A) (A) (A) (A) (A) (A) (A)
                 (A) (A) (A) (A) (A) (A) (A) (A) (A) (A) (A) (A)
                 (A) (A) (A) (A) (A) (A) (A) (A) (A) (A) (A) (A)
                 (A) (A) (A) (A) (A) (A) (A) (A) (A) (A) (A) (A)
                 (A) (A) (A) (A) (A) (A) (A) (A) (A) (A) (A) (A)
                 (A) (A) (A) (A) (A) (A) (A) (A) (A) (A) (A) (A)
                 (A) (A) (A) (A) (A) (A) (A) (A) (A) (A) (A) (A)
                 (A) (A) (A) (A) (A) (A) (A) (A) (A) (A) (A) (A)
                 (A) (A) (A) (A) (A) (A) (A) (A) (A) (A) (A) (A)
                 (A) (A) (A) (A) (A) (A) (A) (A) (A) (A) (A) (A)
                 (A) (A) (A) (A) (A) (A) (A) (A) (A) (A) (A) (A)
                 (A) (A) (A) (A) (A) (A) (A) (A) (A) (A) (A) (A)
                 (A) (A) (A) (A) (A) (A) (A) (A) (A) (A) (A) (A)
                 (A) (A) (A) (A) (A) (A) (A) (A) (A) (A) (A) (A)
                 (A) (A) (A) (A) (A) (A) (A) (A) (A) (A) (A) (A)
                 (A) (A) (A) (A) (A) (A) (A) (A) (A) (A) (A) (A)
                 (A) (A) (A)
 The electronic state is 1-A.
 Alpha  occ. eigenvalues --  -10.19103 -10.19067 -10.18883 -10.18881 -10.18199
 Alpha  occ. eigenvalues --  -10.18198 -10.18195 -10.18176 -10.18175 -10.18127
 Alpha  occ. eigenvalues --  -10.18127 -10.18123 -10.18065 -10.18064  -0.88887
 Alpha  occ. eigenvalues --   -0.85371  -0.81308  -0.78108  -0.75989  -0.72767
 Alpha  occ. eigenvalues --   -0.72195  -0.63655  -0.62844  -0.61494  -0.58659
 Alpha  occ. eigenvalues --   -0.53430  -0.53300  -0.50079  -0.48091  -0.47980
 Alpha  occ. eigenvalues --   -0.44153  -0.43621  -0.43065  -0.42633  -0.41484
 Alpha  occ. eigenvalues --   -0.40992  -0.39577  -0.36751  -0.36704  -0.36573
 Alpha  occ. eigenvalues --   -0.33958  -0.32977  -0.32330  -0.29343  -0.27113
 Alpha  occ. eigenvalues --   -0.23299  -0.22311
 Alpha virt. eigenvalues --   -0.04963  -0.04641  -0.01105   0.01749   0.04310
 Alpha virt. eigenvalues --    0.05061   0.05124   0.06344   0.07713   0.07945
 Alpha virt. eigenvalues --    0.09568   0.09661   0.11531   0.11859   0.11920
 Alpha virt. eigenvalues --    0.13312   0.13520   0.16599   0.16772   0.17477
 Alpha virt. eigenvalues --    0.18344   0.18885   0.19814   0.20418   0.20876
 Alpha virt. eigenvalues --    0.21456   0.21748   0.22295   0.23162   0.23482
 Alpha virt. eigenvalues --    0.24450   0.26236   0.26494   0.26635   0.26979
 Alpha virt. eigenvalues --    0.27112   0.28284   0.29041   0.29091   0.29509
 Alpha virt. eigenvalues --    0.30326   0.31242   0.31284   0.33523   0.33609
 Alpha virt. eigenvalues --    0.34602   0.34901   0.35760   0.36080   0.37141
 Alpha virt. eigenvalues --    0.37768   0.37900   0.38378   0.39250   0.39927
 Alpha virt. eigenvalues --    0.40273   0.40785   0.41926   0.42058   0.42569
 Alpha virt. eigenvalues --    0.43865   0.44479   0.44829   0.45681   0.46204
 Alpha virt. eigenvalues --    0.46803   0.47529   0.47853   0.49286   0.50420
 Alpha virt. eigenvalues --    0.50555   0.51802   0.51969   0.52434   0.54467
 Alpha virt. eigenvalues --    0.54787   0.55404   0.59358   0.60139   0.60907
 Alpha virt. eigenvalues --    0.61352   0.61977   0.63093   0.64522   0.67266
 Alpha virt. eigenvalues --    0.67610   0.67846   0.68020   0.68689   0.69013
 Alpha virt. eigenvalues --    0.69662   0.70376   0.71320   0.71823   0.72145
 Alpha virt. eigenvalues --    0.73901   0.75161   0.75642   0.75785   0.77137
 Alpha virt. eigenvalues --    0.77339   0.79754   0.80559   0.81052   0.82184
 Alpha virt. eigenvalues --    0.82495   0.82583   0.84325   0.84787   0.84960
 Alpha virt. eigenvalues --    0.86647   0.87580   0.89157   0.90371   0.91882
 Alpha virt. eigenvalues --    0.93493   0.93887   0.94963   0.95760   0.95942
 Alpha virt. eigenvalues --    0.96953   1.01475   1.02576   1.03394   1.05188
 Alpha virt. eigenvalues --    1.06637   1.07945   1.09244   1.10248   1.10522
 Alpha virt. eigenvalues --    1.11297   1.14973   1.17843   1.17907   1.18026
 Alpha virt. eigenvalues --    1.18837   1.20263   1.21935   1.22057   1.22259
 Alpha virt. eigenvalues --    1.23324   1.24814   1.24917   1.25503   1.26374
 Alpha virt. eigenvalues --    1.28926   1.30148   1.30304   1.32040   1.33070
 Alpha virt. eigenvalues --    1.33548   1.35338   1.37958   1.39095   1.39127
 Alpha virt. eigenvalues --    1.40446   1.43240   1.43321   1.44229   1.44653
 Alpha virt. eigenvalues --    1.46136   1.46169   1.47799   1.48672   1.49486
 Alpha virt. eigenvalues --    1.51988   1.53104   1.54897   1.55279   1.55788
 Alpha virt. eigenvalues --    1.57155   1.57506   1.58961   1.59175   1.61918
 Alpha virt. eigenvalues --    1.62596   1.64781   1.64847   1.65270   1.67079
 Alpha virt. eigenvalues --    1.67292   1.67304   1.67637   1.68120   1.70789
 Alpha virt. eigenvalues --    1.71794   1.72221   1.74030   1.74667   1.76622
 Alpha virt. eigenvalues --    1.77269   1.77585   1.82580   1.84309   1.85812
 Alpha virt. eigenvalues --    1.86874   1.89422   1.93808   1.93894   1.93998
 Alpha virt. eigenvalues --    1.96094   1.97065   1.98757   1.99164   2.02042
 Alpha virt. eigenvalues --    2.03092   2.03181   2.09497   2.09583   2.12501
 Alpha virt. eigenvalues --    2.14339   2.14511   2.15337   2.16467   2.17406
 Alpha virt. eigenvalues --    2.17675   2.19218   2.20859   2.21889   2.22824
 Alpha virt. eigenvalues --    2.23982   2.25668   2.28022   2.28301   2.29946
 Alpha virt. eigenvalues --    2.30646   2.34981   2.38419   2.38810   2.43651
 Alpha virt. eigenvalues --    2.43941   2.45011   2.45457   2.48543   2.48601
 Alpha virt. eigenvalues --    2.50944   2.52729   2.54725   2.55067   2.57317
 Alpha virt. eigenvalues --    2.57652   2.59061   2.60245   2.60301   2.62241
 Alpha virt. eigenvalues --    2.63138   2.63209   2.63876   2.65643   2.65896
 Alpha virt. eigenvalues --    2.68929   2.69139   2.71216   2.71610   2.71661
 Alpha virt. eigenvalues --    2.71713   2.72513   2.73834   2.77045   2.77165
 Alpha virt. eigenvalues --    2.77503   2.78601   2.79187   2.79756   2.81500
 Alpha virt. eigenvalues --    2.82194   2.82891   2.84100   2.84528   2.85043
 Alpha virt. eigenvalues --    2.85721   2.86827   2.88576   2.88634   2.88764
 Alpha virt. eigenvalues --    2.90905   2.91466   2.91686   2.93645   2.95224
 Alpha virt. eigenvalues --    2.95545   2.96337   2.98897   2.99138   3.00676
 Alpha virt. eigenvalues --    3.01758   3.03982   3.04173   3.04386   3.04917
 Alpha virt. eigenvalues --    3.05546   3.07033   3.08217   3.08716   3.09125
 Alpha virt. eigenvalues --    3.11973   3.13331   3.13459   3.13903   3.17124
 Alpha virt. eigenvalues --    3.17361   3.18319   3.19079   3.19143   3.20390
 Alpha virt. eigenvalues --    3.21129   3.22084   3.22101   3.23033   3.23977
 Alpha virt. eigenvalues --    3.25872   3.27940   3.30009   3.30570   3.31295
 Alpha virt. eigenvalues --    3.31703   3.32015   3.32327   3.32703   3.34041
 Alpha virt. eigenvalues --    3.34771   3.36989   3.37761   3.39368   3.39717
 Alpha virt. eigenvalues --    3.40042   3.41254   3.43781   3.44029   3.44106
 Alpha virt. eigenvalues --    3.45395   3.47292   3.48392   3.50028   3.50130
 Alpha virt. eigenvalues --    3.52559   3.52865   3.54144   3.54600   3.56699
 Alpha virt. eigenvalues --    3.58109   3.58482   3.59042   3.59778   3.60425
 Alpha virt. eigenvalues --    3.61808   3.62876   3.63057   3.66492   3.66963
 Alpha virt. eigenvalues --    3.70571   3.72690   3.77200   3.78345   3.79248
 Alpha virt. eigenvalues --    3.82436   3.84328   3.84377   3.84704   3.87602
 Alpha virt. eigenvalues --    3.89254   3.91898   3.91932   3.91956   3.94574
 Alpha virt. eigenvalues --    3.97293   3.98599   4.01594   4.03505   4.07366
 Alpha virt. eigenvalues --    4.08129   4.09726   4.11136   4.13108   4.14294
 Alpha virt. eigenvalues --    4.15143   4.15497   4.17684   4.18270   4.19027
 Alpha virt. eigenvalues --    4.22969   4.23261   4.25521   4.25772   4.27579
 Alpha virt. eigenvalues --    4.27843   4.29303   4.29893   4.30952   4.32979
 Alpha virt. eigenvalues --    4.33871   4.34910   4.38898   4.42496   4.44142
 Alpha virt. eigenvalues --    4.48126   4.51689   4.52493   4.55746   4.56642
 Alpha virt. eigenvalues --    4.59727   4.61024   4.62334   4.68832   4.68849
 Alpha virt. eigenvalues --    4.77323   4.77678   4.81120   4.83746   4.85911
 Alpha virt. eigenvalues --    4.86386   4.89843   4.92315   4.93250   4.96863
 Alpha virt. eigenvalues --    5.00940   5.03129   5.08576   5.17114   5.19264
 Alpha virt. eigenvalues --    5.19627   5.25831   5.29313   5.29850   5.35197
 Alpha virt. eigenvalues --    5.36388   5.48590   5.51025   5.64694   5.70280
 Alpha virt. eigenvalues --    5.74640   5.79763   6.13319  21.75576  22.48473
 Alpha virt. eigenvalues --   22.57584  22.60879  22.61310  22.62394  22.66800
 Alpha virt. eigenvalues --   22.75832  22.89764  22.93529  22.93732  23.06331
 Alpha virt. eigenvalues --   23.29234  23.80919
          Condensed to atoms (all electrons):
               1          2          3          4          5          6
     1  C    4.887622   0.513862  -0.016181  -0.058303  -0.011490   0.460536
     2  C    0.513862   5.006734   0.444733  -0.033514  -0.054042  -0.026639
     3  C   -0.016181   0.444733   4.907171   0.437645  -0.041153  -0.036575
     4  C   -0.058303  -0.033514   0.437645   5.085003   0.451017  -0.038436
     5  C   -0.011490  -0.054042  -0.041153   0.451017   5.037138   0.522765
     6  C    0.460536  -0.026639  -0.036575  -0.038436   0.522765   4.877870
     7  C    0.008132  -0.090795   0.377576  -0.026030   0.009998   0.001257
     8  C   -0.003561   0.005241  -0.039324   0.323734  -0.107951   0.000465
     9  C    0.000089   0.002747  -0.062395  -0.039319   0.011908  -0.000940
    10  C   -0.001107   0.004521  -0.010127  -0.055945   0.001184   0.000292
    11  C   -0.000009   0.000076   0.002748   0.005236  -0.001355   0.000051
    12  H    0.000001  -0.000013   0.000040  -0.000248   0.000057  -0.000001
    13  C   -0.000000  -0.000009   0.000089  -0.003560   0.000043   0.000013
    14  C    0.000013   0.000051  -0.000942   0.000471   0.001244  -0.000220
    15  C    0.000043  -0.001354   0.011906  -0.107947  -0.007854   0.001246
    16  H    0.000491  -0.001484  -0.074116   0.012205  -0.000627   0.000089
    17  H    0.423088  -0.050243   0.008758  -0.000602   0.009646  -0.050681
    18  H   -0.049614   0.426830  -0.066234   0.012517  -0.002451   0.010028
    19  H    0.007887  -0.000822   0.007971  -0.045312   0.413689  -0.038274
    20  H   -0.049701   0.009311  -0.001289   0.010360  -0.049486   0.421256
    21  H    0.000031  -0.000757   0.012474  -0.003353   0.000199  -0.000006
    22  H   -0.000000   0.000000  -0.000000   0.000205  -0.000008   0.000000
    23  H   -0.000001   0.000000   0.000019  -0.000142   0.000000  -0.000001
    24  H    0.000025  -0.000103   0.000311  -0.021700   0.006236   0.000761
               7          8          9         10         11         12
     1  C    0.008132  -0.003561   0.000089  -0.001107  -0.000009   0.000001
     2  C   -0.090795   0.005241   0.002747   0.004521   0.000076  -0.000013
     3  C    0.377576  -0.039324  -0.062395  -0.010127   0.002748   0.000040
     4  C   -0.026030   0.323734  -0.039319  -0.055945   0.005236  -0.000248
     5  C    0.009998  -0.107951   0.011908   0.001184  -0.001355   0.000057
     6  C    0.001257   0.000465  -0.000940   0.000292   0.000051  -0.000001
     7  C    5.050074  -0.055920  -0.010136   0.531994   0.004520   0.000560
     8  C   -0.055920   5.084961   0.437710  -0.026024  -0.033511   0.012501
     9  C   -0.010136   0.437710   4.907115   0.377497   0.444674  -0.066210
    10  C    0.531994  -0.026024   0.377497   5.050196  -0.090797  -0.002595
    11  C    0.004520  -0.033511   0.444674  -0.090797   5.006778   0.426850
    12  H    0.000560   0.012501  -0.066210  -0.002595   0.426850   0.569905
    13  C   -0.001107  -0.058253  -0.016219   0.008127   0.513912  -0.049623
    14  C    0.000293  -0.038477  -0.036594   0.001257  -0.026621   0.010030
    15  C    0.001184   0.451014  -0.041116   0.009989  -0.054019  -0.002452
    16  H    0.439926  -0.003354   0.012473  -0.054087  -0.000757  -0.000067
    17  H   -0.000819   0.000205  -0.000000   0.000024   0.000000  -0.000000
    18  H   -0.002594  -0.000250   0.000041   0.000558  -0.000013  -0.000000
    19  H    0.000055  -0.021687   0.000312  -0.000216  -0.000104   0.000002
    20  H    0.000041  -0.000142   0.000019   0.000001   0.000000   0.000000
    21  H   -0.054105   0.012194  -0.074103   0.439958  -0.001490   0.007128
    22  H    0.000024  -0.000602   0.008760  -0.000819  -0.050242  -0.007813
    23  H    0.000001   0.010359  -0.001290   0.000041   0.009313  -0.000317
    24  H   -0.000216  -0.045314   0.007974   0.000055  -0.000824   0.000077
              13         14         15         16         17         18
     1  C   -0.000000   0.000013   0.000043   0.000491   0.423088  -0.049614
     2  C   -0.000009   0.000051  -0.001354  -0.001484  -0.050243   0.426830
     3  C    0.000089  -0.000942   0.011906  -0.074116   0.008758  -0.066234
     4  C   -0.003560   0.000471  -0.107947   0.012205  -0.000602   0.012517
     5  C    0.000043   0.001244  -0.007854  -0.000627   0.009646  -0.002451
     6  C    0.000013  -0.000220   0.001246   0.000089  -0.050681   0.010028
     7  C   -0.001107   0.000293   0.001184   0.439926  -0.000819  -0.002594
     8  C   -0.058253  -0.038477   0.451014  -0.003354   0.000205  -0.000250
     9  C   -0.016219  -0.036594  -0.041116   0.012473  -0.000000   0.000041
    10  C    0.008127   0.001257   0.009989  -0.054087   0.000024   0.000558
    11  C    0.513912  -0.026621  -0.054019  -0.000757   0.000000  -0.000013
    12  H   -0.049623   0.010030  -0.002452  -0.000067  -0.000000  -0.000000
    13  C    4.887557   0.460528  -0.011505   0.000031  -0.000000   0.000001
    14  C    0.460528   4.877887   0.522795  -0.000006   0.000000  -0.000001
    15  C   -0.011505   0.522795   5.037065   0.000199  -0.000008   0.000057
    16  H    0.000031  -0.000006   0.000199   0.573534  -0.000055   0.007140
    17  H   -0.000000   0.000000  -0.000008  -0.000055   0.568056  -0.007811
    18  H    0.000001  -0.000001   0.000057   0.007140  -0.007811   0.569927
    19  H    0.000025   0.000760   0.006228   0.000024  -0.000346   0.000077
    20  H   -0.000001  -0.000001   0.000000  -0.000003  -0.006800  -0.000316
    21  H    0.000493   0.000089  -0.000626  -0.009415  -0.000000  -0.000067
    22  H    0.423078  -0.050675   0.009646  -0.000000   0.000000  -0.000000
    23  H   -0.049715   0.421257  -0.049480   0.000000  -0.000000   0.000000
    24  H    0.007887  -0.038270   0.413704  -0.000002  -0.000001   0.000002
              19         20         21         22         23         24
     1  C    0.007887  -0.049701   0.000031  -0.000000  -0.000001   0.000025
     2  C   -0.000822   0.009311  -0.000757   0.000000   0.000000  -0.000103
     3  C    0.007971  -0.001289   0.012474  -0.000000   0.000019   0.000311
     4  C   -0.045312   0.010360  -0.003353   0.000205  -0.000142  -0.021700
     5  C    0.413689  -0.049486   0.000199  -0.000008   0.000000   0.006236
     6  C   -0.038274   0.421256  -0.000006   0.000000  -0.000001   0.000761
     7  C    0.000055   0.000041  -0.054105   0.000024   0.000001  -0.000216
     8  C   -0.021687  -0.000142   0.012194  -0.000602   0.010359  -0.045314
     9  C    0.000312   0.000019  -0.074103   0.008760  -0.001290   0.007974
    10  C   -0.000216   0.000001   0.439958  -0.000819   0.000041   0.000055
    11  C   -0.000104   0.000000  -0.001490  -0.050242   0.009313  -0.000824
    12  H    0.000002   0.000000   0.007128  -0.007813  -0.000317   0.000077
    13  C    0.000025  -0.000001   0.000493   0.423078  -0.049715   0.007887
    14  C    0.000760  -0.000001   0.000089  -0.050675   0.421257  -0.038270
    15  C    0.006228   0.000000  -0.000626   0.009646  -0.049480   0.413704
    16  H    0.000024  -0.000003  -0.009415  -0.000000   0.000000  -0.000002
    17  H   -0.000346  -0.006800  -0.000000   0.000000  -0.000000  -0.000001
    18  H    0.000077  -0.000316  -0.000067  -0.000000   0.000000   0.000002
    19  H    0.570533  -0.007308  -0.000002  -0.000001   0.000001   0.011261
    20  H   -0.007308   0.566172   0.000000  -0.000000   0.000000   0.000001
    21  H   -0.000002   0.000000   0.573526  -0.000055  -0.000003   0.000024
    22  H   -0.000001  -0.000000  -0.000055   0.568060  -0.006801  -0.000346
    23  H    0.000001   0.000000  -0.000003  -0.006801   0.566186  -0.007307
    24  H    0.011261   0.000001   0.000024  -0.000346  -0.007307   0.570516
 Mulliken charges:
               1
     1  C   -0.111851
     2  C   -0.154331
     3  C    0.136894
     4  C    0.096019
     5  C   -0.188708
     6  C   -0.104857
     7  C   -0.183913
     8  C    0.095985
     9  C    0.137004
    10  C   -0.183980
    11  C   -0.154418
    12  H    0.102188
    13  C   -0.111792
    14  C   -0.104869
    15  C   -0.188716
    16  H    0.097861
    17  H    0.107589
    18  H    0.102176
    19  H    0.095247
    20  H    0.107886
    21  H    0.097866
    22  H    0.107591
    23  H    0.107879
    24  H    0.095250
 Sum of Mulliken charges =  -0.00000
 Mulliken charges with hydrogens summed into heavy atoms:
               1
     1  C   -0.004261
     2  C   -0.052155
     3  C    0.136894
     4  C    0.096019
     5  C   -0.093461
     6  C    0.003029
     7  C   -0.086053
     8  C    0.095985
     9  C    0.137004
    10  C   -0.086114
    11  C   -0.052230
    13  C   -0.004202
    14  C    0.003011
    15  C   -0.093465
 Electronic spatial extent (au):  <R**2>=           2611.8562
 Charge=             -0.0000 electrons
 Dipole moment (field-independent basis, Debye):
    X=             -0.0001    Y=             -0.0249    Z=              0.0004  Tot=              0.0249
 Quadrupole moment (field-independent basis, Debye-Ang):
   XX=            -71.9185   YY=            -72.0078   ZZ=            -88.2819
   XY=             -0.0007   XZ=             -0.0006   YZ=              0.0025
 Traceless Quadrupole moment (field-independent basis, Debye-Ang):
   XX=              5.4843   YY=              5.3949   ZZ=            -10.8792
   XY=             -0.0007   XZ=             -0.0006   YZ=              0.0025
 Octapole moment (field-independent basis, Debye-Ang**2):
  XXX=             -0.0087  YYY=             -0.7542  ZZZ=             -0.0001  XYY=              0.0022
  XXY=             -0.2762  XXZ=              0.0197  XZZ=             -0.0001  YZZ=              0.2039
  YYZ=             -0.0041  XYZ=              0.0373
 Hexadecapole moment (field-independent basis, Debye-Ang**3):
 XXXX=          -2371.6911 YYYY=           -907.5674 ZZZZ=           -104.8872 XXXY=             -0.0057
 XXXZ=             -0.0288 YYYX=             -0.0110 YYYZ=              0.0089 ZZZX=             -0.0010
 ZZZY=              0.0029 XXYY=           -542.4090 XXZZ=           -506.7708 YYZZ=           -203.3056
 XXYZ=              0.0356 YYXZ=             -0.0165 ZZXY=              0.0001
 N-N= 7.759882839826D+02 E-N=-2.803224869716D+03  KE= 5.365949441242D+02
 No NMR shielding tensors so no spin-rotation constants.
 Leave Link  601 at Tue Mar 26 13:20:27 2024, MaxMem= 33554432000 cpu:               6.4 elap:               0.3
 (Enter /apps/gaussian/g16-c01-avx2/g16/l701.exe)
 ... and contract with generalized density number  0.
 Compute integral first derivatives.
   1 Symmetry operations used in ECPInt.
 ECPInt:  NShTT=   18915 NPrTT=   58308 LenC2=   17798 LenP2D=   41468.
 LDataN:  DoStor=T MaxTD1= 7 Len=  274
 Leave Link  701 at Tue Mar 26 13:20:28 2024, MaxMem= 33554432000 cpu:               9.6 elap:               0.3
 (Enter /apps/gaussian/g16-c01-avx2/g16/l702.exe)
 L702 exits ... SP integral derivatives will be done elsewhere.
 Leave Link  702 at Tue Mar 26 13:20:29 2024, MaxMem= 33554432000 cpu:               0.3 elap:               0.0
 (Enter /apps/gaussian/g16-c01-avx2/g16/l703.exe)
 Integral derivatives from FoFJK, PRISM(SPDF).
 Compute integral first derivatives, UseDBF=F ICtDFT=           0.
 Calling FoFJK, ICntrl=      2127 FMM=F ISym2X=0 I1Cent= 0 IOpClX= 0 NMat=1 NMatS=1 NMatT=0.
 FoFJK:  IHMeth= 1 ICntrl=    2127 DoSepK=F KAlg= 0 I1Cent=           0 FoldK=F
 IRaf=         0 NMat=       1 IRICut=       1 DoRegI=T DoRafI=F ISym2E= 0 IDoP0=0 IntGTp=1.
 FoFCou: FMM=F IPFlag=           0 FMFlag=      100000 FMFlg1=         800
         NFxFlg=           0 DoJE=F BraDBF=F KetDBF=F FulRan=T
         wScrn=  0.000000 ICntrl=      2127 IOpCl=  0 I1Cent=           0 NGrid=           0
         NMat0=    1 NMatS0=      1 NMatT0=    0 NMatD0=    1 NMtDS0=    0 NMtDT0=    0
 Symmetry not used in FoFCou.
 Leave Link  703 at Tue Mar 26 13:20:47 2024, MaxMem= 33554432000 cpu:             557.0 elap:              17.6
 (Enter /apps/gaussian/g16-c01-avx2/g16/l716.exe)
 Dipole        =-5.60874486D-05-9.78774166D-03 1.64386274D-04
 ***** Axes restored to original set *****
 -------------------------------------------------------------------
 Center     Atomic                   Forces (Hartrees/Bohr)
 Number     Number              X              Y              Z
 -------------------------------------------------------------------
      1        6          -0.002587610   -0.007627645    0.000004278
      2        6          -0.000295569   -0.005303806   -0.000086090
      3        6           0.003714658   -0.006897623    0.000069901
      4        6          -0.006774924    0.000503682   -0.000019984
      5        6          -0.005401009    0.003715575    0.000001173
      6        6          -0.007423975    0.000902939    0.000012318
      7        6           0.004090809   -0.005419610   -0.000024928
      8        6          -0.003581688    0.005783387    0.000016845
      9        6           0.007910701   -0.000087935   -0.000003648
     10        6           0.006698629   -0.001181380    0.000010377
     11        6           0.004532276    0.002710832   -0.000001496
     12        1          -0.011045539    0.000554437    0.000011940
     13        6           0.005553434    0.005826233    0.000002313
     14        6          -0.004210096    0.006212734    0.000004536
     15        6          -0.005792244    0.003020070    0.000022388
     16        1          -0.004315677    0.010384197    0.000015892
     17        1           0.006110300    0.009188204    0.000020747
     18        1          -0.005627347    0.009518870   -0.000003876
     19        1           0.006047356   -0.011739201   -0.000027221
     20        1           0.011229782    0.000774173    0.000013619
[...]
 0,0.00079102,-0.00000155,-0.00006717,-0.00001196,0.00000013,-0.0000153
 4,0.00010524,0.00000001,0.00020494,0.00005577,-0.00000001,0.00001448,-
 0.00000676,-0.00000002,0.00010355,0.00006711,-0.00000009,0.00064489,-0
 .00050643,-0.00000149,-0.00136864,0.00028931,0.00000169,-0.00053161,0.
 00001012,0.00000055,0.00033166,-0.00074788,-0.00000142,0.00006984,0.00
 011969,-0.00000066,0.14136571,-0.00411234,-0.00302589,-0.00001547,-0.0
 0076200,0.00024207,0.00000202,-0.00085249,0.00147826,-0.00000649,0.000
 85995,0.00408406,0.00000281,0.12463434,-0.25840901,-0.00044658,0.01671
 501,-0.02084812,-0.00004926,-0.00025391,-0.00001324,-0.00000029,0.0001
 7159,-0.00153582,0.00000070,0.00023897,0.00006474,-0.00000012,0.000057
 01,0.00013337,0.00000064,0.00006491,-0.00000415,-0.00000018,0.00002105
 ,0.00002033,-0.00000002,0.00000444,-0.00006320,0.00000003,-0.00026168,
 0.00012656,0.00000035,-0.00166872,-0.00120577,0.00000078,-0.00001977,0
 .00001411,0.00000002,0.00078597,-0.00101986,-0.00000232,0.00008781,-0.
 00004506,0.00000184,-0.13271820,0.28124598,0.00000038,-0.00001723,0.00
 856690,-0.00000177,0.00000172,-0.00069692,0.00000741,-0.00000557,0.005
 96295,0.00001389,-0.00001674,0.00187969,0.00026926,-0.00044574,-0.0338
 1728,0.00002037,-0.00002629,0.00213953,-0.00000017,-0.00000166,0.00031
 340,-0.00000284,-0.00000032,-0.00233987,0.00000091,-0.00000005,0.00001
 848,-0.00000015,0.00000085,-0.00029248,0.00000012,-0.00000041,0.000079
 04,0.00000006,0.,0.00002794,-0.00000032,0.00000018,-0.00006569,-0.0000
 0024,0.00000072,-0.00000070,-0.00000443,-0.00000008,-0.00108896,0.0000
 0035,-0.00000005,0.00003326,0.00000114,-0.00000129,0.00007359,-0.00000
 091,0.00000183,-0.00121910,-0.00029542,0.00050922,0.02265085,-0.011732
 31,-0.00251645,0.00000537,0.00057630,0.00329753,0.00000954,0.00064993,
 -0.00001414,-0.00000133,0.00098328,-0.00284031,0.00000098,-0.01222486,
 0.00197022,0.00001297,-0.33507306,-0.00002627,0.00021795,0.00001098,0.
 00001126,-0.00000067,-0.00057644,0.00050097,0.00000146,-0.00005238,-0.
 00032702,-0.00000087,0.00004103,-0.00003988,-0.00000003,-0.00005425,0.
 00004617,0.00000012,-0.00002589,-0.00002329,-0.00000005,-0.00001666,-0
 .00004386,-0.00000002,-0.00000224,-0.00000949,-0.00000010,-0.00005588,
 -0.00000630,0.00000029,0.00001196,0.00001357,0.00000005,0.00081131,0.0
 0028204,-0.00000213,-0.00067674,-0.00019614,0.00000039,0.00100160,-0.0
 0024546,-0.00000411,0.35644331,0.02852334,0.00477265,-0.00001508,0.002
 31715,-0.00466488,-0.00001999,-0.00028369,-0.00117393,0.00000015,-0.00
 205487,-0.00467856,-0.00002066,-0.02917716,0.00369362,0.00002488,0.000
 60420,-0.05970727,-0.00004227,0.00025243,0.00026749,0.00000177,-0.0010
 6857,0.00086497,0.00000189,-0.00021780,-0.00025119,0.00000054,0.000044
 94,-0.00025603,-0.00000066,-0.00014457,-0.00003559,0.00000013,-0.00002
 986,-0.00003838,0.00000003,-0.00008896,0.00005643,0.00000010,0.0001313
 0,0.00003579,0.00000009,-0.00000607,-0.00007107,-0.00000051,-0.0000873
 9,0.00002048,0.00000003,-0.00065190,0.00102634,0.00000675,0.00140748,0
 .00002294,-0.00000152,0.00033063,0.00112853,0.00000852,0.00020057,0.05
 902552,0.00005687,0.00000665,0.00121794,0.00000790,-0.00002069,0.00651
 990,-0.00000151,0.00000042,-0.00108382,0.00000370,-0.00001996,0.008877
 20,-0.00003871,0.00000170,0.00125940,0.00021816,-0.00004046,-0.0335708
 3,-0.00000069,0.00000193,-0.00096136,-0.00000128,0.00000028,0.00022096
 ,-0.00000064,0.00000058,-0.00048458,0.00000011,-0.00000033,0.00011070,
 -0.00000018,0.00000002,-0.00001926,-0.00000007,0.00000003,-0.00004288,
 0.00000002,-0.00000003,0.00005087,-0.00000003,0.00000019,-0.00010885,0
 .00000039,-0.00000066,0.00030623,-0.00000010,-0.00000006,0.00004839,-0
 .00000382,0.00000596,-0.00281562,0.00000283,-0.00000014,0.00018466,-0.
 00000322,0.00000858,-0.00419572,-0.00023979,0.00005602,0.02443392,-0.0
 0007373,-0.00035926,-0.00000126,-0.00073181,0.00043816,0.00000149,0.00
 119285,-0.00297177,0.00000369,0.00044609,0.00011582,-0.00000088,-0.000
 02737,0.00002020,-0.00000075,0.00005973,-0.00000437,0.00000008,-0.0132
 7733,0.00213553,0.00001831,0.00092970,0.00267668,0.00000762,-0.0127385
 0,-0.00159928,0.00001098,-0.33207109,0.00459642,0.00028520,0.00081298,
 -0.00196319,-0.00000611,0.00065952,0.00074568,0.00000090,0.00006844,0.
 00043759,0.00000059,0.00032664,0.00004950,-0.00000031,-0.00078355,-0.0
 0063525,-0.00000027,0.00097528,-0.00025616,-0.00000621,-0.00008593,-0.
 00000020,0.00000003,0.00001415,-0.00003898,0.00000012,-0.00000660,0.00
 001724,0.00000007,-0.00002573,-0.00000444,0.00000012,0.35440108,-0.000
 31049,-0.00029144,0.00000101,-0.00099463,0.00073027,0.00000165,-0.0015
 8049,-0.00463588,-0.00002264,-0.00028335,-0.00072739,0.00000023,0.0001
 7621,0.00027011,0.00000166,0.00005380,-0.00021882,-0.00000063,-0.02940
 089,0.00459751,0.00002978,0.00112878,-0.00485608,-0.00001615,0.0276683
 1,0.00263076,-0.00002466,0.00501827,-0.05881969,-0.00004413,0.00168661
 ,0.00150515,0.00000457,-0.00084939,-0.00031630,-0.00000012,-0.00040016
 ,0.00009282,0.00000074,0.00007992,0.00009056,0.00000018,0.00141791,0.0
 0043759,-0.00000078,0.00036655,0.00103288,0.00000994,-0.00014230,-0.00
 000513,0.00000017,0.00002991,-0.00004385,-0.00000043,-0.00006956,0.000
 00138,-0.00000002,-0.00000532,0.00001204,-0.00000015,-0.00372429,0.058
 95896,-0.00000087,0.00000108,-0.00076191,-0.00000085,0.00000027,0.0001
 8702,0.00000511,-0.00002099,0.01010054,-0.00000154,0.00000030,-0.00075
 659,-0.00000036,0.00000172,-0.00081352,0.00000011,-0.00000042,0.000137
 01,-0.00003392,0.00000020,0.00287327,0.00000409,-0.00001802,0.00408756
 ,0.00006019,0.00000179,0.00215195,0.00028636,-0.00004309,-0.03477912,0
 .00000021,0.00000786,-0.00207992,-0.00000182,-0.00000161,0.00022190,-0
 .00000089,0.,-0.00013783,-0.00000022,0.00000014,-0.00005100,0.00000310
 ,0.00000125,0.00010953,-0.00000494,0.00001039,-0.00520732,-0.00000017,
 0.00000005,-0.00003861,0.00000020,-0.00000037,0.00020650,-0.00000010,-
 0.00000008,0.00003531,0.00000009,-0.00000015,0.00010768,-0.00031425,0.
 00006100,0.02422821,-0.00007998,0.00003006,0.00000012,0.00009056,0.000
 02988,0.00000002,-0.00023749,-0.00001914,0.00000028,0.00000308,-0.0002
 6793,-0.00000135,-0.00001394,0.00006160,0.00000010,0.00005002,-0.00010
 508,-0.00000030,0.00006611,0.00025646,-0.00000009,-0.00051328,0.001067
 06,0.00000135,-0.00077093,0.00317680,0.00001476,0.00054440,0.00021114,
 0.00000014,0.01188391,0.01357987,0.00001431,0.00087973,-0.00051101,-0.
 00000578,-0.13960816,-0.12514092,-0.00011929,-0.01160128,-0.02845333,-
 0.00003830,-0.00550230,0.00172234,0.00001506,0.00003603,0.00006346,0.0
 0000002,0.00000088,-0.00001092,0.,0.00000128,-0.00001087,-0.00000002,0
 .00009814,-0.00001243,0.00000003,-0.00000501,-0.00000105,0.,-0.0000149
 5,-0.00000350,0.00000011,0.14430720,0.00004127,-0.00001740,-0.00000007
 ,-0.00006361,-0.00001489,-0.00000004,0.00020283,0.00001677,-0.00000035
 ,0.00000684,0.00017726,0.00000189,-0.00005759,-0.00005140,-0.00000010,
 -0.00004680,0.00005789,0.00000029,0.00026087,-0.00046148,-0.00000017,0
 .00070303,-0.00007704,0.00000108,0.00407523,-0.00283873,-0.00002448,-0
 .00126547,-0.00048811,-0.00000017,-0.01760533,-0.01955695,-0.00002090,
 0.00027829,0.00106579,0.00000909,-0.12475516,-0.25586972,-0.00027148,0
 .00256639,0.00488460,0.00000419,0.00076222,0.00160075,-0.00000960,-0.0
 0007863,-0.00012709,-0.00000005,-0.00000745,-0.00000871,-0.00000006,0.
 00000676,-0.00000120,0.,-0.00000575,0.00000523,-0.00000015,-0.00001083
 ,-0.00000322,0.,0.00005543,-0.00001027,-0.00000025,0.13519853,0.270954
 44,0.00000020,-0.00000010,0.00000287,-0.00000023,-0.00000015,0.0000412
 5,0.00000060,-0.00000001,0.00010032,-0.00000089,0.00000198,-0.00089557
 ,0.,-0.00000034,0.00004247,-0.00000021,0.00000043,-0.00009445,0.000000
 05,-0.00000023,-0.00046541,0.00000102,0.00000066,-0.00106675,0.0000159
 4,-0.00002368,0.00893125,-0.00000257,-0.00000171,0.00026340,-0.0000408
 7,-0.00005002,0.00176647,-0.00000434,0.00000983,-0.00426051,-0.0001185
 7,-0.00027165,-0.03413890,0.00001679,0.00003412,0.00112411,0.00001317,
 -0.00001062,0.00660690,-0.00000021,-0.00000022,-0.00003861,0.,-0.00000
 005,0.00002800,0.,0.,-0.00000111,-0.00000007,-0.00000011,0.00008924,-0
 .00000001,-0.00000001,0.00000544,0.00000021,-0.00000016,0.00009768,0.0
 0012347,0.00030485,0.02460385,0.00009526,-0.00003053,-0.00000007,0.000
 00078,-0.00011584,-0.00000020,0.00001490,-0.00018268,-0.00000081,0.000
 78914,-0.00035570,-0.00000118,-0.00006274,-0.00000965,0.00000042,-0.00
 002233,0.00012082,0.00000009,-0.00019449,-0.00007801,0.00000014,-0.001
 45787,-0.00332922,0.00000416,-0.00066114,-0.00096813,-0.00000207,0.000
 10438,0.00030119,-0.00000055,-0.00584584,-0.00103543,0.00001027,-0.000
 62385,0.00143509,0.00000317,-0.00943123,0.02972479,0.00006379,-0.11891
 504,0.11344450,0.00028872,0.01144599,-0.01682011,-0.00004050,0.0000079
 6,0.00001314,0.00000012,0.00000127,0.00000223,0.,-0.00001390,-0.000023
 60,-0.00000007,-0.00003054,-0.00000308,-0.00000011,-0.00000246,-0.0000
 0556,0.00000002,0.00004893,-0.00006808,-0.00000011,0.00113202,-0.00048
 446,-0.00000475,0.12255443,0.00001457,-0.00005549,-0.00000019,0.000074
 90,-0.00009062,-0.00000016,-0.00029191,-0.00031846,0.00000057,0.001213
 84,-0.00050060,-0.00000242,-0.00000988,-0.00006420,-0.00000058,-0.0000
 1998,0.00005587,0.00000029,-0.00016283,-0.00002051,-0.00000010,-0.0041
 1467,-0.00223735,-0.00001603,-0.00069856,0.00013714,0.00000287,0.00006
 002,0.00017408,0.00000197,-0.00005504,0.00175720,-0.00000863,-0.000168
 52,-0.00002996,-0.00000024,-0.00131512,0.00247131,0.00000351,0.1128143
 4,-0.27586445,-0.00054664,0.01432715,-0.01997681,-0.00005247,0.0000122
 6,-0.00002164,-0.00000024,-0.00000755,-0.00000950,-0.00000002,-0.00001
 703,-0.00005037,0.,-0.00000447,-0.00000299,0.00000010,-0.00002601,-0.0
 0001894,-0.00000004,0.00003288,-0.00001650,-0.00000014,0.00044945,0.00
 070564,0.00000593,-0.12189621,0.29291345,-0.00000013,-0.00000009,0.000
 05088,0.00000017,0.00000005,-0.00001926,-0.00000108,0.00000048,-0.0004
 8458,0.00000134,-0.00000127,0.00022096,0.00000025,-0.00000055,0.000306
 23,-0.00000009,0.,-0.00010885,0.00000022,-0.00000006,0.00011070,0.0000
 0231,-0.00001563,0.00887731,-0.00000136,0.00000353,-0.00108382,-0.0000
 0084,0.00000140,-0.00096137,0.00001206,-0.00000771,0.00651983,0.000000
 51,-0.00000187,0.00018464,0.00000708,-0.00002667,0.00121795,0.00028879
 ,-0.00054724,-0.03357188,0.00001553,-0.00002282,0.00125932,0.00000011,
 -0.00000022,0.00010768,0.,-0.00000003,0.00000544,-0.00000005,0.,-0.000
 04288,0.00000004,0.00000015,-0.00008120,-0.00000003,-0.00000006,0.0000
 2083,0.00000005,-0.00000004,0.00004839,-0.00000307,0.00000672,-0.00281
 555,-0.00031602,0.00060292,0.02443502,-0.00005684,-0.00007929,-0.00000
 008,-0.00000888,-0.00004671,0.00000001,-0.00005664,0.00024445,0.000000
 46,-0.00129495,-0.00125240,-0.00000363,-0.00067473,-0.00130653,-0.0000
 0345,0.00055265,-0.00030981,-0.00000105,0.00003496,0.00008326,-0.00000
 021,-0.01115785,0.00079630,0.00001417,0.00116630,0.00257343,0.00000948
 ,-0.00060515,-0.00051758,-0.00000002,0.00065108,-0.00004651,-0.0000014
 4,-0.00010558,-0.00000376,-0.00000115,0.00038539,-0.00352956,0.0000021
 9,-0.01457181,0.00307961,0.00002195,-0.33498162,0.02131496,0.00034605,
 0.00002113,0.00003172,0.00000006,0.00003258,-0.00004665,0.,0.00001321,
 0.00002039,0.00000006,0.00025834,-0.00274823,-0.00000352,-0.00000579,0
 .00000984,-0.00000008,-0.00009881,0.00020617,0.00000048,-0.00074604,0.
 00022337,0.00000124,0.00106639,-0.00021162,-0.00000579,0.36018266,-0.0
 0001662,0.00009720,0.00000026,-0.00005585,0.00020967,0.00000028,-0.000
 00646,0.00005420,0.00000013,-0.00063295,0.00119190,0.00000666,0.000651
 54,-0.00189968,-0.00000130,-0.00055458,0.00021876,0.00000075,0.0001315
 0,0.00008306,0.00000058,0.02833653,0.00420597,-0.00002387,0.00144995,-
 0.00508430,-0.00002119,0.00138775,0.00049186,-0.00000097,-0.00002149,-
 0.00112846,-0.00000082,0.00002811,0.00013035,0.00000246,-0.00242207,-0
 .00414214,-0.00002062,-0.02873704,0.00527127,0.00003474,0.02203986,-0.
 06049901,-0.00007095,-0.00005508,-0.00002635,-0.00000008,-0.00003997,0
 .00007078,-0.00000003,-0.00000742,0.00002160,-0.00000002,-0.00228944,-
 0.00237148,-0.00000753,0.00000845,-0.00002774,0.00000017,0.00023606,-0
 .00041870,-0.00000093,-0.00131049,0.00005784,0.00000126,0.00036454,0.0
 0106371,0.00000900,-0.01848485,0.06242966,0.00000028,0.00000028,-0.000
 06568,-0.00000028,0.00000025,0.00007904,-0.00000024,0.00000018,0.00001
 849,-0.00000293,0.00000677,-0.00233980,0.00000188,-0.00000175,-0.00108
 896,-0.00000171,0.00000138,-0.00000071,0.00000011,0.00000064,-0.000292
 47,0.00006295,0.00000597,0.00187973,0.00000724,-0.00002191,0.00596285,
 0.00000348,0.00000082,0.00031340,-0.00000141,-0.00000119,-0.00069693,-
 0.00000099,0.00000234,-0.00121910,0.00000322,-0.00001936,0.00856700,-0
 .00003524,0.00000250,0.00213960,0.00034935,-0.00007111,-0.03381692,-0.
 00000010,-0.00000013,0.00003531,-0.00000005,0.00000005,0.00008924,0.,-
 0.00000002,0.00002794,-0.00000425,-0.00000621,0.00192774,-0.00000006,0
 .00000001,-0.00008120,0.00000056,-0.00000104,0.00003325,-0.00000159,-0
 .00000024,0.00007360,-0.00000447,0.00000974,-0.00419579,-0.00037576,0.
 00009203,0.02265040\\0.00010014,-0.00013980,-0.00000124,-0.00005300,-0
 .00011851,0.00000023,-0.00015522,0.00021901,0.00000079,0.00014779,-0.0
 0012595,-0.00000005,-0.00014257,-0.00002158,-0.00000006,-0.00001767,0.
 00017623,0.00000112,0.00019613,0.00003040,-0.00000101,0.00018342,-0.00
 007449,-0.00000039,-0.00026875,0.00003470,-0.00000088,0.00006377,-0.00
 018721,0.00000076,0.00008088,0.00010433,0.00000085,-0.00001460,-0.0000
 2412,-0.00000037,0.00017288,-0.00002563,-0.00000029,-0.00016763,-0.000
 06766,-0.00000037,-0.00004674,0.00014002,0.00000091,-0.00004999,-0.000
 01004,0.00000105,-0.00002368,0.00002827,0.00000071,0.00001461,0.000024
 01,0.00000022,0.00002005,0.00002347,-0.00000159,0.00000031,-0.00002385
 ,-0.00000086,-0.00001423,0.00004872,-0.00000124,-0.00003632,0.00000816
 ,0.,0.00002200,0.00001102,0.00000044,-0.00001160,-0.00002951,0.0000012
 4\\\@
 The archive entry for this job was punched.


      LET US REMEMBER, PLEASE, THAT THE SEARCH FOR THE CONSTITUTION
      OF THE WORLD IS ONE OF THE GREATEST AND NOBLEST PROBLEMS PRESENTED 
      BY NATURE.

                                                  -- GALILEO
 Job cpu time:       0 days  5 hours 24 minutes 49.8 seconds.
 Elapsed time:       0 days  0 hours 10 minutes 14.2 seconds.
 File lengths (MBytes):  RWF=    465 Int=      0 D2E=      0 Chk=     21 Scr=      1
 Normal termination of Gaussian 16 at Tue Mar 26 13:35:41 2024.
 Initial command:
 /apps/gaussian/g16-c01-avx2/g16/l1.exe "/var/tmp/pbs.9164975.pbs/Gau-970912.inp" -scrdir="/var/tmp/pbs.9164975.pbs/"
 Entering Link 1 = /apps/gaussian/g16-c01-avx2/g16/l1.exe PID=   1006244.
  
 Copyright (c) 1988-2019, Gaussian, Inc.  All Rights Reserved.
  
 This is part of the Gaussian(R) 16 program.  It is based on
 the Gaussian(R) 09 system (copyright 2009, Gaussian, Inc.),
 the Gaussian(R) 03 system (copyright 2003, Gaussian, Inc.),
 the Gaussian(R) 98 system (copyright 1998, Gaussian, Inc.),
 the Gaussian(R) 94 system (copyright 1995, Gaussian, Inc.),
 the Gaussian 92(TM) system (copyright 1992, Gaussian, Inc.),
 the Gaussian 90(TM) system (copyright 1990, Gaussian, Inc.),
 the Gaussian 88(TM) system (copyright 1988, Gaussian, Inc.),
 the Gaussian 86(TM) system (copyright 1986, Carnegie Mellon
 University), and the Gaussian 82(TM) system (copyright 1983,
 Carnegie Mellon University). Gaussian is a federally registered
 trademark of Gaussian, Inc.
  
 This software contains proprietary and confidential information,
 including trade secrets, belonging to Gaussian, Inc.
  
 This software is provided under written license and may be
 used, copied, transmitted, or stored only in accord with that
 written license.
  
 The following legend is applicable only to US Government
 contracts under FAR:
  
                    RESTRICTED RIGHTS LEGEND
  
 Use, reproduction and disclosure by the US Government is
 subject to restrictions as set forth in subparagraphs (a)
 and (c) of the Commercial Computer Software - Restricted
 Rights clause in FAR 52.227-19.
  
 Gaussian, Inc.
 340 Quinnipiac St., Bldg. 40, Wallingford CT 06492
  
  
 ---------------------------------------------------------------
 Warning -- This program may not be used in any manner that
 competes with the business of Gaussian, Inc. or will provide
 assistance to any competitor of Gaussian, Inc.  The licensee
 of this program is prohibited from giving any competitor of
 Gaussian, Inc. access to this program.  By using this program,
 the user acknowledges that Gaussian, Inc. is engaged in the
 business of creating and licensing software in the field of
 computational chemistry and represents and warrants to the
 licensee that it is not a competitor of Gaussian, Inc. and that
 it will not use this program in any manner prohibited above.
 ---------------------------------------------------------------
  

 Cite this work as:
 Gaussian 16, Revision C.01,
 M. J. Frisch, G. W. Trucks, H. B. Schlegel, G. E. Scuseria, 
 M. A. Robb, J. R. Cheeseman, G. Scalmani, V. Barone, 
 G. A. Petersson, H. Nakatsuji, X. Li, M. Caricato, A. V. Marenich, 
 J. Bloino, B. G. Janesko, R. Gomperts, B. Mennucci, H. P. Hratchian, 
 J. V. Ortiz, A. F. Izmaylov, J. L. Sonnenberg, D. Williams-Young, 
 F. Ding, F. Lipparini, F. Egidi, J. Goings, B. Peng, A. Petrone, 
 T. Henderson, D. Ranasinghe, V. G. Zakrzewski, J. Gao, N. Rega, 
 G. Zheng, W. Liang, M. Hada, M. Ehara, K. Toyota, R. Fukuda, 
 J. Hasegawa, M. Ishida, T. Nakajima, Y. Honda, O. Kitao, H. Nakai, 
 T. Vreven, K. Throssell, J. A. Montgomery, Jr., J. E. Peralta, 
 F. Ogliaro, M. J. Bearpark, J. J. Heyd, E. N. Brothers, K. N. Kudin, 
 V. N. Staroverov, T. A. Keith, R. Kobayashi, J. Normand, 
 K. Raghavachari, A. P. Rendell, J. C. Burant, S. S. Iyengar, 
 J. Tomasi, M. Cossi, J. M. Millam, M. Klene, C. Adamo, R. Cammi, 
 J. W. Ochterski, R. L. Martin, K. Morokuma, O. Farkas, 
 J. B. Foresman, and D. J. Fox, Gaussian, Inc., Wallingford CT, 2019.
 
 ******************************************
 Gaussian 16:  ES64L-G16RevC.01  3-Jul-2019
                26-Mar-2024 
 ******************************************
 %oldchk=Phenanthrene_n_1-1.chk
 %chk=Phenanthrene_n_1-2.chk
 %Mem=250GB
 %NProcShared=32
 Will use up to   32 processors via shared memory.
 Copying data from "Phenanthrene_n_1-1.chk" to current chk file "Phenanthrene_n_1-2.chk"
 IOpt=  2 FromEx=T IUOpen= 4 IOptOp= 5 NList=   0 IFRang= 0 IUIn= 4 IUOut= 2.
 ----------------------------------------------------------------------
 #p B3LYP/def2TZVP geom=check opt freq=savenormalmodes TD=(nstates=2, R
 oot=1)
 ----------------------------------------------------------------------
 1/18=20,19=15,26=3,29=2,38=1/1,3;
 2/9=110,12=2,40=1/2;
 3/5=44,7=101,11=9,14=-4,25=1,30=1,71=1,74=-5/1,2,3,8;
 4//1;
 5/5=2,38=5/2;
 8/6=1,10=1,107=1,108=2/1;
 9/8=1,15=2,41=2,42=1,70=2/14;
 10/5=4,28=1/2;
 6/7=2,8=2,9=2,10=2/1;
 7/12=6,13=5,14=1,92=1/1,2,3,16;
 1/18=20,19=15,26=3/3(2);
 2/9=110/2;
 99//99;
 2/9=110/2;
 3/5=44,7=101,11=9,14=-2,25=1,30=1,71=1,74=-5/1,2,3,8;
 4/5=5,16=3,69=1/1;
 5/5=2,38=5/2;
 8/6=1,10=1,107=1,108=2/1;
 9/8=1,15=2,41=2,42=1,49=4,70=2/14;
 10/5=4,28=1/2;
 7/12=6,13=5,14=1,92=1/1,2,3,16;
 1/18=20,19=15,26=3/3(-8);
 2/9=110/2;
 6/7=2,8=2,9=2,10=2/1;
 99/9=10/99;
 Leave Link    1 at Tue Mar 26 13:35:42 2024, MaxMem= 33554432000 cpu:               3.9 elap:               0.1
 (Enter /apps/gaussian/g16-c01-avx2/g16/l101.exe)
 ---
 0 1
 ---
 Charge and Multiplicity card seems defective:
 Wanted an integer as input.
                                                                                 
 ?
 Error termination via Lnk1e in /apps/gaussian/g16-c01-avx2/g16/l101.exe at Tue Mar 26 13:35:42 2024.
 Job cpu time:       0 days  0 hours  0 minutes  8.9 seconds.
 Elapsed time:       0 days  0 hours  0 minutes  0.3 seconds.
 File lengths (MBytes):  RWF=      6 Int=      0 D2E=      0 Chk=     17 Scr=      1
