Ground state optimization and frequency calculation for formaldehyde    
Freq      RHF                                                         STO-3G              
Number of atoms                            I                4
Info1-9                                    I   N=           9
          50          17        1002           0           0         100
           6           1           2
Full Title                                 C   N=           6
Ground state optimization and frequency calculation for form
aldehyde    
Route                                      C   N=           4
#p hf/sto-3g geom=connectivity Opt Freq         
Charge                                     I                0
Multiplicity                               I                1
Number of electrons                        I               16
Number of alpha electrons                  I                8
Number of beta electrons                   I                8
Number of basis functions                  I               12
Number of independent functions            I               12
Number of point charges in /Mol/           I                0
Number of translation vectors              I                0
Atomic numbers                             I   N=           4
           6           1           1           8
Nuclear charges                            R   N=           4
  6.00000000E+00  1.00000000E+00  1.00000000E+00  8.00000000E+00
Current cartesian coordinates              R   N=          12
 -4.93038066E-32 -4.52519459E-17 -1.00877655E+00 -1.18329136E-30 -1.75016840E+00
 -2.13434225E+00  2.14333813E-16  1.75016840E+00 -2.13434225E+00 -9.86076132E-32
  2.27426325E-16  1.29016798E+00
Number of symbols in /Mol/                 I                0
Int Atom Types                             I   N=           4
           0           0           0           0
Force Field                                I                0
Atom Types                                 C   N=           4
                                                
MM charges                                 R   N=           4
  0.00000000E+00  0.00000000E+00  0.00000000E+00  0.00000000E+00
Integer atomic weights                     I   N=           4
          12           1           1          16
Real atomic weights                        R   N=           4
  1.20000000E+01  1.00782504E+00  1.00782504E+00  1.59949146E+01
Atom fragment info                         I   N=           4
           0           0           0           0
Atom residue num                           I   N=           4
           0           0           0           0
Nuclear spins                              I   N=           4
           0           1           1           0
Nuclear ZEff                               R   N=           4
 -3.60000000E+00 -1.00000000E+00 -1.00000000E+00 -5.60000000E+00
Nuclear ZNuc                               R   N=           4
  6.00000000E+00  1.00000000E+00  1.00000000E+00  8.00000000E+00
Nuclear QMom                               R   N=           4
  0.00000000E+00  0.00000000E+00  0.00000000E+00  0.00000000E+00
Nuclear GFac                               R   N=           4
  0.00000000E+00  2.79284600E+00  2.79284600E+00  0.00000000E+00
MicOpt                                     I   N=           4
          -1          -1          -1          -1
Number of residues                         I                0
Number of secondary structures             I                0
Redundant internal dimensions              I   N=           4
           7           3           3           1
Redundant internal coordinate indices      I   N=          28
           1           2           0           0           1           3
           0           0           1           4           0           0
           2           1           3           0           2           1
           4           0           3           1           4           0
           2           1           4           3
Redundant internal coordinates             R   N=           7
  2.08086221E+00  2.08086221E+00  2.29894453E+00  1.99854786E+00  2.14231872E+00
  2.14231872E+00  3.14159265E+00
ZRed-IntVec                                I   N=           7
           0           0           0           0           0           0
           0
ZRed-FPVec                                 R   N=           7
  0.00000000E+00  0.00000000E+00  0.00000000E+00  0.00000000E+00  0.00000000E+00
  0.00000000E+00  0.00000000E+00
ZRed-Constraint1                           R   N=           7
  2.08086221E+00  2.08086221E+00  2.29894453E+00  1.99854786E+00  2.14231872E+00
  2.14231872E+00  3.14159265E+00
ZRed-Constraint2                           R   N=           7
  2.02200694E+00  2.02200695E+00  2.37803135E+00  2.09439510E+00  2.09439511E+00
  2.09439510E+00  3.14159265E+00
SymInf integers                            I   N=          26
           2           4           1           1           1          -1
          -1           1          -1           1           1           1
          -1           1           0           0           0           0
           0           0           0           0           0           0
           0           0
RotTr to input orientation                 R   N=          12
  5.95555149E-16 -5.55792249E-16 -1.00000000E+00 -8.66116354E-01  4.99842436E-01
 -7.93628606E-16  4.99842436E-01  8.66116354E-01 -1.83697020E-16 -4.44200153E-01
  1.76602634E-01 -6.80199930E-17
Number of contracted shells                I                6
Number of primitive shells                 I               18
Pure/Cartesian d shells                    I                0
Pure/Cartesian f shells                    I                0
Highest angular momentum                   I                1
Largest degree of contraction              I                3
Shell types                                I   N=           6
           0          -1           0           0           0          -1
Number of primitives per shell             I   N=           6
           3           3           3           3           3           3
Shell to atom map                          I   N=           6
           1           1           2           3           4           4
Primitive exponents                        R   N=          18
  7.16168373E+01  1.30450963E+01  3.53051216E+00  2.94124936E+00  6.83483096E-01
  2.22289916E-01  3.42525091E+00  6.23913730E-01  1.68855404E-01  3.42525091E+00
  6.23913730E-01  1.68855404E-01  1.30709321E+02  2.38088661E+01  6.44360831E+00
  5.03315132E+00  1.16959612E+00  3.80388960E-01
Contraction coefficients                   R   N=          18
  1.54328967E-01  5.35328142E-01  4.44634542E-01 -9.99672292E-02  3.99512826E-01
  7.00115469E-01  1.54328967E-01  5.35328142E-01  4.44634542E-01  1.54328967E-01
  5.35328142E-01  4.44634542E-01  1.54328967E-01  5.35328142E-01  4.44634542E-01
 -9.99672292E-02  3.99512826E-01  7.00115469E-01
P(S=P) Contraction coefficients            R   N=          18
  0.00000000E+00  0.00000000E+00  0.00000000E+00  1.55916275E-01  6.07683719E-01
  3.91957393E-01  0.00000000E+00  0.00000000E+00  0.00000000E+00  0.00000000E+00
  0.00000000E+00  0.00000000E+00  0.00000000E+00  0.00000000E+00  0.00000000E+00
  1.55916275E-01  6.07683719E-01  3.91957393E-01
Coordinates of each shell                  R   N=          18
 -4.93038066E-32 -4.52519459E-17 -1.00877655E+00 -4.93038066E-32 -4.52519459E-17
 -1.00877655E+00 -7.88860905E-31 -1.75016840E+00 -2.13434225E+00  2.14333813E-16
  1.75016840E+00 -2.13434225E+00  0.00000000E+00  1.16404023E-16  1.29016798E+00
  0.00000000E+00  1.16404023E-16  1.29016798E+00
Num ILSW                                   I              100
ILSW                                       I   N=         100
           0           0           0           0           2           0
           0           0           0           0           0          -1
           5           0           0           0           2           0
           0           0           0           0           1           0
           1           0           0           0           0           0
           0           0      100000           0          -1           0
           0           0           0           0           0           0
           0           0           0           1           0           0
           0 -2000000000           1           0           0           0
           0           0           4          52           0           0
           0           0           0           0           0           0
           0           0           0           4           0           1
           0           0           0           0           0           0
           0           0           0           0           0           0
           0           0           0           0           0           0
           0           0           0           0           0           0
           0           0           0           0
Num RLSW                                   I               52
RLSW                                       R   N=          52
  1.00000000E+00  1.00000000E+00  1.00000000E+00  1.00000000E+00  1.00000000E+00
  0.00000000E+00  0.00000000E+00  1.00000000E+00  0.00000000E+00  0.00000000E+00
  0.00000000E+00  0.00000000E+00  1.00000000E+00  0.00000000E+00  0.00000000E+00
  0.00000000E+00  0.00000000E+00  1.00000000E+00  0.00000000E+00  0.00000000E+00
  0.00000000E+00  0.00000000E+00  1.00000000E+00  0.00000000E+00  0.00000000E+00
  0.00000000E+00  0.00000000E+00  1.00000000E+00  0.00000000E+00  0.00000000E+00
  0.00000000E+00  0.00000000E+00  1.00000000E+00  0.00000000E+00  0.00000000E+00
  0.00000000E+00  0.00000000E+00  0.00000000E+00  1.00000000E+00  1.00000000E+00
  0.00000000E+00  1.00000000E+00  0.00000000E+00  0.00000000E+00  0.00000000E+00
  0.00000000E+00  0.00000000E+00  0.00000000E+00  0.00000000E+00  0.00000000E+00
  0.00000000E+00  0.00000000E+00
MxBond                                     I                3
NBond                                      I   N=           4
           3           1           1           1
IBond                                      I   N=          12
           2           3           4           1           0           0
           1           0           0           1           0           0
RBond                                      R   N=          12
  1.00000000E+00  1.00000000E+00  2.00000000E+00  1.00000000E+00  0.00000000E+00
  0.00000000E+00  1.00000000E+00  0.00000000E+00  0.00000000E+00  2.00000000E+00
  0.00000000E+00  0.00000000E+00
Virial Ratio                               R      2.008923287544268E+00
SCF Energy                                 R     -1.123543469756759E+02
Total Energy                               R     -1.123543469756759E+02
RMS Force                                  R      1.513824164881941E-04
NImag                                      I                0
Job Status                                 I                1
Nuclear derivative order                   I                2
Thermal Energy                             R     -1.123202996389528E+02
Thermal Enthalpy                           R     -1.123193554541392E+02
Thermal Free Energy                        R     -1.123441609319780E+02
External E-field                           R   N=          35
  0.00000000E+00  0.00000000E+00  0.00000000E+00  0.00000000E+00  0.00000000E+00
  0.00000000E+00  0.00000000E+00  0.00000000E+00  0.00000000E+00  0.00000000E+00
  0.00000000E+00  0.00000000E+00  0.00000000E+00  0.00000000E+00  0.00000000E+00
  0.00000000E+00  0.00000000E+00  0.00000000E+00  0.00000000E+00  0.00000000E+00
  0.00000000E+00  0.00000000E+00  0.00000000E+00  0.00000000E+00  0.00000000E+00
  0.00000000E+00  0.00000000E+00  0.00000000E+00  0.00000000E+00  0.00000000E+00
  0.00000000E+00  0.00000000E+00  0.00000000E+00  0.00000000E+00  0.00000000E+00
IOpCl                                      I                0
IROHF                                      I                0
Alpha Orbital Energies                     R   N=          12
 -2.03127722E+01 -1.11251046E+01 -1.33757097E+00 -8.07843487E-01 -6.33012820E-01
 -5.45615079E-01 -4.43302139E-01 -3.54395414E-01  2.82032387E-01  6.28944425E-01
  7.34582148E-01  9.13200192E-01
Alpha MO coefficients                      R   N=         144
  5.25080418E-04 -7.18206256E-03  0.00000000E+00  0.00000000E+00 -6.29680046E-03
  1.91241522E-04  1.91241522E-04  9.94287744E-01  2.59359641E-02  0.00000000E+00
  0.00000000E+00 -5.62292301E-03  9.92624659E-01  3.29015080E-02  0.00000000E+00
  0.00000000E+00  5.16267545E-04 -6.51200005E-03 -6.51200005E-03  1.29722833E-04
 -5.71157805E-03  0.00000000E+00  0.00000000E+00  1.63858485E-03 -1.22566202E-01
  2.77144116E-01  0.00000000E+00  0.00000000E+00  1.57759155E-01  3.17595718E-02
  3.17595718E-02 -2.19359213E-01  7.68913107E-01  0.00000000E+00  0.00000000E+00
 -1.70248920E-01 -1.85608137E-01  5.77295818E-01  0.00000000E+00  0.00000000E+00
 -2.26361053E-01  2.64565971E-01  2.64565971E-01  9.88267507E-02 -4.29050671E-01
  0.00000000E+00  0.00000000E+00 -1.64569642E-01  0.00000000E+00  0.00000000E+00
  0.00000000E+00  5.33202635E-01  0.00000000E+00 -3.00173524E-01  3.00173524E-01
  0.00000000E+00  0.00000000E+00  0.00000000E+00  4.42339028E-01  0.00000000E+00
  3.30394523E-02 -1.06752907E-01  0.00000000E+00  0.00000000E+00 -4.47431837E-01
  1.58871659E-01  1.58871659E-01 -9.38309788E-02  4.99237985E-01  0.00000000E+00
  0.00000000E+00  6.76932302E-01  0.00000000E+00  0.00000000E+00  6.09354583E-01
  0.00000000E+00  0.00000000E+00  0.00000000E+00  0.00000000E+00  0.00000000E+00
  0.00000000E+00  6.75828702E-01  0.00000000E+00  0.00000000E+00  0.00000000E+00
  0.00000000E+00  0.00000000E+00 -1.82113050E-01  0.00000000E+00  3.59271441E-01
 -3.59271441E-01  0.00000000E+00  0.00000000E+00  0.00000000E+00  8.69884763E-01
  0.00000000E+00  0.00000000E+00  0.00000000E+00  8.21129356E-01  0.00000000E+00
  0.00000000E+00  0.00000000E+00  0.00000000E+00  0.00000000E+00  0.00000000E+00
 -7.67347374E-01  0.00000000E+00  0.00000000E+00 -2.08056657E-01  1.30357976E+00
  0.00000000E+00  0.00000000E+00 -4.44965230E-01 -8.89461513E-01 -8.89461513E-01
  2.81281752E-02 -1.61648251E-01  0.00000000E+00  0.00000000E+00  2.46213596E-01
  0.00000000E+00  0.00000000E+00  0.00000000E+00  1.14852753E+00  0.00000000E+00
  8.40035868E-01 -8.40035868E-01  0.00000000E+00  0.00000000E+00  0.00000000E+00
 -3.18703451E-01  0.00000000E+00 -9.47439921E-02  6.31644156E-01  0.00000000E+00
  0.00000000E+00  1.17345952E+00  1.54939313E-01  1.54939313E-01  1.15790953E-01
 -8.64197328E-01  0.00000000E+00  0.00000000E+00  9.23986521E-01
Orthonormal basis                          R   N=         144
  1.61796004E-01  4.51905218E-01  0.00000000E+00  0.00000000E+00  2.15372807E-02
  2.87613917E-01  2.87613917E-01  7.22389243E-02  2.28795798E-01  0.00000000E+00
  0.00000000E+00 -1.95241475E-01 -1.63290659E-02 -3.23221818E-02  0.00000000E+00
  0.00000000E+00  5.43022346E-01 -2.27207715E-01 -2.27207715E-01  1.82489425E-01
  3.69638036E-01  0.00000000E+00  0.00000000E+00 -1.97166345E-01 -1.92400216E-01
 -4.78959409E-02  0.00000000E+00  0.00000000E+00 -1.79774119E-01  7.59514388E-02
  7.59514388E-02  5.84927833E-01  3.62869515E-01  0.00000000E+00  0.00000000E+00
  5.75293246E-01  9.57207926E-01 -3.57670796E-02  0.00000000E+00  0.00000000E+00
 -3.56222631E-02 -1.58882757E-01 -1.58882757E-01  6.95361669E-02  7.28272003E-03
  0.00000000E+00  0.00000000E+00  2.72675520E-01  7.69123087E-02 -9.36063601E-02
  0.00000000E+00  0.00000000E+00 -1.74782389E-01 -3.62274661E-02 -3.62274661E-02
  7.93894508E-01 -4.71044916E-01  0.00000000E+00  0.00000000E+00 -5.37198845E-01
  1.27861955E-01 -4.97646780E-01  0.00000000E+00  0.00000000E+00  1.12970975E+00
  7.07883813E-01  7.07883813E-01  1.45072632E-01 -6.64621391E-01  0.00000000E+00
  0.00000000E+00  4.39153798E-01 -2.93528228E-01  1.43375496E+00  0.00000000E+00
  0.00000000E+00  4.64376947E-01 -4.93624411E-01 -4.93624411E-01  1.80790099E-01
 -9.02170084E-01  0.00000000E+00  0.00000000E+00  6.81883432E-01  0.00000000E+00
  0.00000000E+00  6.43154060E-01  0.00000000E+00  0.00000000E+00  0.00000000E+00
  0.00000000E+00  0.00000000E+00  0.00000000E+00  6.43154060E-01  0.00000000E+00
  0.00000000E+00  0.00000000E+00  0.00000000E+00  7.94933508E-01  0.00000000E+00
  0.00000000E+00  0.00000000E+00  0.00000000E+00  0.00000000E+00  0.00000000E+00
 -7.94933508E-01  0.00000000E+00  0.00000000E+00  0.00000000E+00  0.00000000E+00
  0.00000000E+00  5.85632362E-01  0.00000000E+00 -3.40132332E-01  3.40132332E-01
  0.00000000E+00  0.00000000E+00  0.00000000E+00  2.67567643E-01  0.00000000E+00
  0.00000000E+00  0.00000000E+00  0.00000000E+00 -1.50716794E-01  0.00000000E+00
  2.45633989E-01 -2.45633989E-01  0.00000000E+00  0.00000000E+00  0.00000000E+00
  9.54378307E-01  0.00000000E+00  0.00000000E+00  0.00000000E+00  0.00000000E+00
  1.12734417E+00  0.00000000E+00  8.65340576E-01 -8.65340576E-01  0.00000000E+00
  0.00000000E+00  0.00000000E+00 -2.67403832E-01  0.00000000E+00
Total SCF Density                          R   N=          78
  2.07173690E+00 -2.23982568E-01  8.45219195E-01  6.21580256E-34  0.00000000E+00
  7.42626017E-01 -2.95356023E-19  1.37503108E-18  2.30726407E-31  6.34940425E-01
  1.68095272E-02 -7.82568172E-02  2.04385806E-32 -1.61603794E-17  5.52724884E-01
 -1.08426172E-01  2.88718336E-01 -1.21718772E-31 -4.50962664E-01 -2.51931745E-01
  6.30933167E-01 -1.08426172E-01  2.88718336E-01  1.03229845E-31  4.50962664E-01
 -2.51931745E-01 -2.45787286E-01  6.30933167E-01  1.21873991E-02 -1.72376883E-03
 -1.57187307E-33  7.46906250E-19 -4.25084979E-02  8.92332343E-03  8.92332343E-03
  2.11059516E+00 -7.53749739E-03 -1.76517428E-01 -3.78489538E-34  1.79846711E-19
 -1.02355731E-02 -1.94698720E-02 -1.94698720E-02 -4.64253553E-01  2.05051141E+00
  5.57635283E-33  0.00000000E+00  8.23638634E-01  1.63318859E-31 -5.07606499E-33
  9.39853813E-32 -8.47409176E-32 -3.55179879E-33  0.00000000E+00  9.13488868E-01
 -2.64971317E-18  7.53289908E-18  1.20178029E-31  1.54877936E-01  8.70419418E-18
  3.59492575E-01 -3.59492575E-01  1.68770670E-18 -9.75166911E-18  5.60830800E-31
  1.90472663E+00  1.50802496E-01 -4.28718095E-01 -2.16284198E-32  8.70419418E-18
 -5.84901958E-01  1.17174103E-01  1.17174103E-01 -9.60520506E-02  5.54994426E-01
  3.80383433E-32 -3.74194655E-17  1.02867901E+00
Grdnt Energy                               R     -1.123543469756759E+02
Grdnt NVar                                 I                7
Grdnt IGetFC                               I                4
Internal Forces                            R   N=           7
  2.12319862E-04  2.12319862E-04  3.78514892E-04  4.17077535E-05 -2.08538767E-05
 -2.08538767E-05  2.63068545E-16
Internal Force Constants                   R   N=          28
  4.51279961E-01 -4.53379422E-03  4.51279961E-01  2.90311549E-02  2.90311549E-02
  1.14586107E+00  4.95069670E-03  4.95069670E-03 -3.98088614E-02  1.13827548E-01
  8.88667941E-03 -1.38373761E-02  1.99044307E-02 -5.69137738E-02  1.42348983E-01
 -1.38373761E-02  8.88667941E-03  1.99044307E-02 -5.69137738E-02 -8.54352089E-02
  1.42348983E-01 -4.13941381E-16  3.10863506E-16  3.41575439E-16 -5.11986111E-17
 -5.22663489E-16  6.11362057E-16  6.81483720E-02
Mulliken Charges                           R   N=           4
  7.49707395E-02  5.64959025E-02  5.64959025E-02 -1.87962544E-01
Optimization MaxStp                        I                2
Optimization MaxJob                        I                1
Optimization Job offset                    I                0
Optimization Num results per geometry      I                2
Optimization Num geometry variables        I               12
Optimization Reference Energy              R     -1.120000000000000E+02
Opt point       1 Results for each geome   R   N=           2
 -3.54346976E-01  0.00000000E+00
Opt point       1 Geometries               R   N=          12
 -4.93038066E-32 -4.52519459E-17 -1.00877655E+00 -7.88860905E-31 -1.75016840E+00
 -2.13434225E+00  2.14333813E-16  1.75016840E+00 -2.13434225E+00  0.00000000E+00
  1.16404023E-16  1.29016798E+00
Opt point       1 Gradient at each geome   R   N=          12
 -4.46807168E-16 -2.97720941E-15  1.99396148E-04  1.84900301E-17  1.94840349E-04
  8.95593719E-05  4.57057779E-16 -1.94840349E-04  8.95593719E-05 -2.87406409E-17
  2.42341106E-15 -3.78514892E-04
Optimization Number of geometries          I   N=           1
           1
ONIOM Charges                              I   N=          16
           0           0           0           0           0           0
           0           0           0           0           0           0
           0           0           0           0
ONIOM Multiplicities                       I   N=          16
           1           0           0           0           0           0
           0           0           0           0           0           0
           0           0           0           0
Atom Layers                                I   N=           4
           1           1           1           1
Atom Modifiers                             I   N=           4
           0           0           0           0
Int Atom Modified Types                    I   N=           4
           0           0           0           0
Force Field                                I                0
Atom Modified Types                        C   N=           4
                                                
Link Atoms                                 I   N=           4
           0           0           0           0
Atom Modified MM Charges                   R   N=           4
  0.00000000E+00  0.00000000E+00  0.00000000E+00  0.00000000E+00
Link Distances                             R   N=          16
  0.00000000E+00  0.00000000E+00  0.00000000E+00  0.00000000E+00  0.00000000E+00
  0.00000000E+00  0.00000000E+00  0.00000000E+00  0.00000000E+00  0.00000000E+00
  0.00000000E+00  0.00000000E+00  0.00000000E+00  0.00000000E+00  0.00000000E+00
  0.00000000E+00
Cartesian Gradient                         R   N=          12
 -4.46807168E-16 -2.97720941E-15  1.99396148E-04  1.84900301E-17  1.94840349E-04
  8.95593719E-05  4.57057779E-16 -1.94840349E-04  8.95593719E-05 -2.87406409E-17
  2.42341106E-15 -3.78514892E-04
Cartesian Force Constants                  R   N=          78
  1.97096793E-01 -1.51810300E-16  8.11577042E-01  1.36660112E-16 -5.03043975E-15
  1.40213829E+00 -6.61866895E-02  2.02601686E-17  1.90269293E-17  2.21475071E-02
 -3.39615362E-17 -3.45329543E-01 -1.37612545E-01  2.08960999E-17  3.42505515E-01
 -4.69581186E-18 -1.42614592E-01 -1.67977880E-01 -5.52436439E-18  1.67258861E-01
  1.94123945E-01 -6.61866895E-02  2.34737952E-16 -1.83078852E-16  2.22588338E-02
 -1.36200049E-17 -2.69076263E-18  2.21475071E-02  2.55876147E-16 -3.45329543E-01
  1.37612545E-01 -1.93472064E-17 -1.46183333E-02  2.07511060E-02 -3.24740749E-16
  3.42505515E-01 -1.79979457E-16  1.42614592E-01 -1.67977880E-01  2.59895608E-18
 -2.07511060E-02  1.36932062E-02  2.35065323E-16 -1.67258861E-01  1.94123945E-01
 -6.47234138E-02 -1.53399190E-18 -1.70128203E-17  2.17803486E-02 -2.31704347E-18
 -1.58744990E-18  2.17803486E-02  4.52918577E-18  2.32729082E-18  2.11627166E-02
 -1.91654585E-17 -1.20917956E-01  9.89116541E-16  1.07630928E-18  1.74423610E-02
 -4.53953749E-02  1.99401791E-17  1.74423610E-02  4.53953749E-02  9.18024779E-18
  8.60332338E-02  9.48296298E-18  4.51253092E-15 -1.06618253E+00 -2.28151808E-17
 -8.89520983E-03 -3.98392722E-02  1.07164051E-17  8.89520983E-03 -3.98392722E-02
  1.50671928E-18 -1.63442371E-14  1.14586107E+00
Nonadiabatic coupling                      R   N=          12
  0.00000000E+00  0.00000000E+00  0.00000000E+00  0.00000000E+00  0.00000000E+00
  0.00000000E+00  0.00000000E+00  0.00000000E+00  0.00000000E+00  0.00000000E+00
  0.00000000E+00  0.00000000E+00
Dipole Moment                              R   N=           3
  6.84180472E-18 -6.59805366E-16 -6.04533671E-01
Dipole Derivatives                         R   N=          36
  3.40793302E-02  5.63782856E-17  5.82224395E-17  9.37919585E-18  5.85316532E-01
  9.61889085E-16 -1.39723999E-17  3.82487219E-15  2.21469129E-01  7.68266341E-02
  9.55799448E-18 -7.41859698E-17 -3.25128655E-18 -9.52507905E-02  2.50096422E-02
  5.47843823E-18  2.53410059E-02  4.26346535E-02  7.68266341E-02  4.44301951E-17
 -3.68273757E-17  4.76314893E-17 -9.52507905E-02 -2.50096422E-02 -3.08690925E-17
 -2.53410059E-02  4.26346535E-02 -1.87732598E-01  1.17896728E-17  6.24598983E-18
 -8.97210911E-18 -3.94814951E-01 -7.41954713E-16  1.65291716E-17 -9.96950871E-15
 -3.06738436E-01
Polarizability                             R   N=           6
  2.47912812E+00  4.28980948E-16  5.89697497E+00 -2.91609367E-16  4.90884220E-15
  1.06659136E+01
Polarizability Derivatives                 R   N=          72
 -7.14051979E-16  1.02347869E-14 -4.52611029E-15 -2.50113707E+00  2.69117877E-15
 -1.55966071E-15 -3.31874369E-15 -9.91199426E-16 -1.63791497E-14  7.36710145E-16
  1.00583841E+00 -7.84747316E-15 -7.99467124E-01  5.32896486E-16  1.89660047E+00
 -6.29714914E-16  7.03958242E-15 -4.49838377E+00 -2.86168452E-17 -9.76433692E-01
 -2.85280376E-17 -3.55789574E-01  2.99054261E-17  1.76531840E-17 -1.14440480E-01
 -3.08652924E-17 -4.63402653E+00 -1.66054525E-17 -2.06191414E+00 -3.24386888E-01
 -1.23505887E-01  2.27560627E-18 -5.47260578E-01 -2.36354670E-17 -2.01145982E+00
 -2.51177315E+00  9.39357429E-16  9.76433692E-01  4.12315297E-15 -3.55789574E-01
 -2.22669637E-15  1.44521964E-15  1.14440480E-01  2.08269489E-16  4.63402653E+00
 -1.32118440E-16 -2.06191414E+00  3.24386888E-01 -1.23505887E-01  4.30875605E-17
 -5.47260578E-01  4.10283901E-16  2.01145982E+00 -2.51177315E+00 -3.35455516E-17
  4.34166875E-16 -2.69770281E-16  3.21271621E+00  1.00024822E-16 -4.01787456E-17
  5.29033849E-16 -6.60876740E-17 -5.00813288E-15  5.25744163E-17  3.11798986E+00
  3.96634515E-15  1.04647890E+00  2.44393077E-17 -8.02079310E-01 -1.24699640E-16
  7.85987278E-16  9.52193008E+00
HyperPolarizability                        R   N=          10
  3.07057917E-18 -2.24501802E-15 -1.82336335E-16 -1.61426781E-14 -1.85162446E+00
  2.69303801E-16 -4.77749244E+00 -8.46385034E-16 -1.67065985E-14 -4.86149486E+00
Quadrupole Moment                          R   N=           6
  2.49476452E-01  1.58935674E-01 -4.08412125E-01  3.12822607E-17 -3.17182329E-17
  1.24768513E-15
QEq coupling tensors                       R   N=          24
  1.08871315E-01  5.11127641E-17  5.22478699E-02 -3.13542860E-17  1.96589008E-16
 -1.61119185E-01  1.52257200E-01  2.98021957E-18 -1.69968122E-01 -5.46377915E-19
 -2.07848411E-01  1.77109221E-02  1.52257200E-01 -6.55846197E-17 -1.69968122E-01
  4.12801976E-17  2.07848411E-01  1.77109221E-02 -1.52147416E+00 -7.04224579E-18
  2.46437789E+00  1.09131074E-18  6.45572041E-16 -9.42903736E-01
Number of Normal Modes                     I                6
Vib-LE2Fix                                 I               14
Vib-NDFDPol                                I                0
Vib-NumROA                                 I                0
Vib-NDim                                   I                4
Vib-NDim0                                  I                4
Vib-LFlags                                 I                8
Vib-IFlags                                 I   N=          48
           0           0           1           0           0           0
           0           0           0           0           2           0
           0           0           0           0           0           0
           3           0           0           0           0           0
           0           0           4           0           0           0
           0           0           0           0           5           0
           0           0           0           0           0           0
           6           0           0           0           0           0
Vib-AtMass                                 R   N=           4
  1.20000000E+01  1.00782504E+00  1.00782504E+00  1.59949146E+01
Vib-E2                                     R   N=          84
  1.27823546E+03  1.39715130E+03  1.76746196E+03  2.10073330E+03  3.50086401E+03
  3.64772673E+03  1.36845734E+00  1.34491014E+00  1.16248968E+00  5.06960843E+00
  1.06432610E+00  1.11518934E+00  1.31735610E+00  1.54678640E+00  2.13963385E+00
  1.31815493E+01  7.68555785E+00  8.74265618E+00  6.14820508E+00  2.95891310E+01
  4.14946301E+00  8.47357979E+00  1.82295875E+00  1.98911479E+01  7.36360017E-03
  3.03913842E+00  1.63794410E+01  6.71470408E+00  3.86315466E+01  2.45170934E+01
  7.50000000E-01  7.50000000E-01  7.07511859E-01  7.57246528E-02  1.86476924E-01
  7.50000000E-01  8.57142857E-01  8.57142857E-01  8.28705060E-01  1.40788170E-01
  3.14337212E-01  8.57142857E-01  0.00000000E+00  0.00000000E+00  0.00000000E+00
  0.00000000E+00  0.00000000E+00  0.00000000E+00  0.00000000E+00  0.00000000E+00
  0.00000000E+00  0.00000000E+00  0.00000000E+00  0.00000000E+00  1.00000000E+02
  1.00000000E+02  1.00000000E+02  1.00000000E+02  1.00000000E+02  1.00000000E+02
  0.00000000E+00  0.00000000E+00  0.00000000E+00  0.00000000E+00  0.00000000E+00
  0.00000000E+00  0.00000000E+00  0.00000000E+00  0.00000000E+00  0.00000000E+00
  0.00000000E+00  0.00000000E+00  0.00000000E+00  0.00000000E+00  0.00000000E+00
  0.00000000E+00  0.00000000E+00  0.00000000E+00  0.00000000E+00  0.00000000E+00
  0.00000000E+00  0.00000000E+00  0.00000000E+00  0.00000000E+00
Vib-Modes                                  R   N=          72
 -1.74058589E-01  2.02580801E-16  6.44107043E-19  6.95651284E-01 -5.08795306E-16
  1.02162921E-15  6.95651284E-01  2.14643701E-16 -1.57123395E-15  4.29207358E-02
 -1.33449681E-16  3.41468614E-17  2.94734948E-16  1.49379288E-01  4.69468299E-15
 -1.14139574E-15 -2.68249700E-01  6.43290175E-01 -1.17424685E-15 -2.68249700E-01