 Entering Gaussian System, Link 0=g16
 Input=Acrolein_gs.gjf
 Output=Acrolein_gs.log
 Initial command:
 /apps/gaussian/g16-c01-avx2/g16/l1.exe "/var/tmp/pbs.8908837.pbs/Gau-4145124.inp" -scrdir="/var/tmp/pbs.8908837.pbs/"
 Entering Link 1 = /apps/gaussian/g16-c01-avx2/g16/l1.exe PID=   4145126.
  
 Copyright (c) 1988-2019, Gaussian, Inc.  All Rights Reserved.
  
 This is part of the Gaussian(R) 16 program.  It is based on
 the Gaussian(R) 09 system (copyright 2009, Gaussian, Inc.),
 the Gaussian(R) 03 system (copyright 2003, Gaussian, Inc.),
 the Gaussian(R) 98 system (copyright 1998, Gaussian, Inc.),
 the Gaussian(R) 94 system (copyright 1995, Gaussian, Inc.),
 the Gaussian 92(TM) system (copyright 1992, Gaussian, Inc.),
 the Gaussian 90(TM) system (copyright 1990, Gaussian, Inc.),
 the Gaussian 88(TM) system (copyright 1988, Gaussian, Inc.),
 the Gaussian 86(TM) system (copyright 1986, Carnegie Mellon
 University), and the Gaussian 82(TM) system (copyright 1983,
 Carnegie Mellon University). Gaussian is a federally registered
 trademark of Gaussian, Inc.
  
 This software contains proprietary and confidential information,
 including trade secrets, belonging to Gaussian, Inc.
  
 This software is provided under written license and may be
 used, copied, transmitted, or stored only in accord with that
 written license.
  
 The following legend is applicable only to US Government
 contracts under FAR:
  
                    RESTRICTED RIGHTS LEGEND
  
 Use, reproduction and disclosure by the US Government is
 subject to restrictions as set forth in subparagraphs (a)
 and (c) of the Commercial Computer Software - Restricted
 Rights clause in FAR 52.227-19.
  
 Gaussian, Inc.
 340 Quinnipiac St., Bldg. 40, Wallingford CT 06492
  
  
 ---------------------------------------------------------------
 Warning -- This program may not be used in any manner that
 competes with the business of Gaussian, Inc. or will provide
 assistance to any competitor of Gaussian, Inc.  The licensee
 of this program is prohibited from giving any competitor of
 Gaussian, Inc. access to this program.  By using this program,
 the user acknowledges that Gaussian, Inc. is engaged in the
 business of creating and licensing software in the field of
 computational chemistry and represents and warrants to the
 licensee that it is not a competitor of Gaussian, Inc. and that
 it will not use this program in any manner prohibited above.
 ---------------------------------------------------------------
  

 Cite this work as:
 Gaussian 16, Revision C.01,
 M. J. Frisch, G. W. Trucks, H. B. Schlegel, G. E. Scuseria, 
 M. A. Robb, J. R. Cheeseman, G. Scalmani, V. Barone, 
 G. A. Petersson, H. Nakatsuji, X. Li, M. Caricato, A. V. Marenich, 
 J. Bloino, B. G. Janesko, R. Gomperts, B. Mennucci, H. P. Hratchian, 
 J. V. Ortiz, A. F. Izmaylov, J. L. Sonnenberg, D. Williams-Young, 
 F. Ding, F. Lipparini, F. Egidi, J. Goings, B. Peng, A. Petrone, 
 T. Henderson, D. Ranasinghe, V. G. Zakrzewski, J. Gao, N. Rega, 
 G. Zheng, W. Liang, M. Hada, M. Ehara, K. Toyota, R. Fukuda, 
 J. Hasegawa, M. Ishida, T. Nakajima, Y. Honda, O. Kitao, H. Nakai, 
 T. Vreven, K. Throssell, J. A. Montgomery, Jr., J. E. Peralta, 
 F. Ogliaro, M. J. Bearpark, J. J. Heyd, E. N. Brothers, K. N. Kudin, 
 V. N. Staroverov, T. A. Keith, R. Kobayashi, J. Normand, 
 K. Raghavachari, A. P. Rendell, J. C. Burant, S. S. Iyengar, 
 J. Tomasi, M. Cossi, J. M. Millam, M. Klene, C. Adamo, R. Cammi, 
 J. W. Ochterski, R. L. Martin, K. Morokuma, O. Farkas, 
 J. B. Foresman, and D. J. Fox, Gaussian, Inc., Wallingford CT, 2019.
 
 ******************************************
 Gaussian 16:  ES64L-G16RevC.01  3-Jul-2019
                11-Feb-2024 
 ******************************************
 %chk=Acrolein_gs.chk
 %NProcShared=32
 Will use up to   32 processors via shared memory.
 %Mem=110GB
 -------------------------
 # CAM-B3LYP/TZVP Opt Freq
 -------------------------
 1/18=20,19=15,26=3,38=1/1,3;
 2/9=110,12=2,17=6,18=5,40=1/2;
 3/5=19,7=101,11=2,25=1,30=1,71=1,74=-40/1,2,3;
 4//1;
 5/5=2,38=5/2;
 6/7=2,8=2,9=2,10=2,28=1/1;
 7//1,2,3,16;
 1/18=20,19=15,26=3/3(2);
 2/9=110/2;
 99//99;
 2/9=110/2;
 3/5=19,7=101,11=2,25=1,30=1,71=1,74=-40/1,2,3;
 4/5=5,16=3,69=1/1;
 5/5=2,38=5/2;
 7//1,2,3,16;
 1/18=20,19=15,26=3/3(-5);
 2/9=110/2;
 6/7=2,8=2,9=2,10=2,19=2,28=1/1;
 99/9=1/99;
 ----------------------------------------------------------------------
 Ground state optimization and frequency calculation for acrolein, to b
 e followed up by TD-DFT, excited state opt and freq, and FC-HT analysi
 s.
 ----------------------------------------------------------------------
 Symbolic Z-matrix:
 Charge =  0 Multiplicity = 1
 O                    -3.79868   0.69626  -0.2686 
 C                    -5.05708   0.69626  -0.2686 
 H                    -5.59575  -0.2277   -0.30086 
 C                    -5.82444   2.03065  -0.222 
 H                    -5.28578   2.9546   -0.18973 
 C                    -7.17962   2.03869  -0.22172 
 H                    -7.72377   1.11795  -0.25387 
 H                    -7.70726   2.96898  -0.18923 
 

 GradGradGradGradGradGradGradGradGradGradGradGradGradGradGradGradGradGrad
 Berny optimization.
 Initialization pass.
                           ----------------------------
                           !    Initial Parameters    !
                           ! (Angstroms and Degrees)  !
 --------------------------                            --------------------------
 ! Name  Definition              Value          Derivative Info.                !
 --------------------------------------------------------------------------------
 ! R1    R(1,2)                  1.2584         estimate D2E/DX2                !
 ! R2    R(2,3)                  1.07           estimate D2E/DX2                !
 ! R3    R(2,4)                  1.54           estimate D2E/DX2                !
 ! R4    R(4,5)                  1.07           estimate D2E/DX2                !
 ! R5    R(4,6)                  1.3552         estimate D2E/DX2                !
 ! R6    R(6,7)                  1.07           estimate D2E/DX2                !
 ! R7    R(6,8)                  1.07           estimate D2E/DX2                !
 ! A1    A(1,2,3)              120.2269         estimate D2E/DX2                !
 ! A2    A(1,2,4)              119.8865         estimate D2E/DX2                !
 ! A3    A(3,2,4)              119.8865         estimate D2E/DX2                !
 ! A4    A(2,4,5)              119.8865         estimate D2E/DX2                !
 ! A5    A(2,4,6)              120.2269         estimate D2E/DX2                !
 ! A6    A(5,4,6)              119.8865         estimate D2E/DX2                !
 ! A7    A(4,6,7)              120.2269         estimate D2E/DX2                !
 ! A8    A(4,6,8)              119.8865         estimate D2E/DX2                !
 ! A9    A(7,6,8)              119.8865         estimate D2E/DX2                !
 ! D1    D(1,2,4,5)              0.0            estimate D2E/DX2                !
 ! D2    D(1,2,4,6)            180.0            estimate D2E/DX2                !
 ! D3    D(3,2,4,5)            180.0            estimate D2E/DX2                !
 ! D4    D(3,2,4,6)              0.0            estimate D2E/DX2                !
 ! D5    D(2,4,6,7)              0.0            estimate D2E/DX2                !
 ! D6    D(2,4,6,8)            180.0            estimate D2E/DX2                !
 ! D7    D(5,4,6,7)            180.0            estimate D2E/DX2                !
 ! D8    D(5,4,6,8)              0.0            estimate D2E/DX2                !
 --------------------------------------------------------------------------------
 Trust Radius=3.00D-01 FncErr=1.00D-07 GrdErr=1.00D-06 EigMax=2.50D+02 EigMin=1.00D-04
 Number of steps in this run=     34 maximum allowed number of steps=    100.
 GradGradGradGradGradGradGradGradGradGradGradGradGradGradGradGradGradGrad

                          Input orientation:                          
 ---------------------------------------------------------------------
 Center     Atomic      Atomic             Coordinates (Angstroms)
 Number     Number       Type             X           Y           Z
 ---------------------------------------------------------------------
      1          8           0       -3.798685    0.696257   -0.268595
      2          6           0       -5.057085    0.696257   -0.268595
      3          1           0       -5.595751   -0.227700   -0.300860
      4          6           0       -5.824442    2.030645   -0.221997
      5          1           0       -5.285776    2.954603   -0.189732
      6          6           0       -7.179618    2.038692   -0.221716
      7          1           0       -7.723768    1.117950   -0.253869
      8          1           0       -7.707261    2.968982   -0.189230
 ---------------------------------------------------------------------
                    Distance matrix (angstroms):
                    1          2          3          4          5
     1  O    0.000000
     2  C    1.258400   0.000000
     3  H    2.020937   1.070000   0.000000
     4  C    2.426202   1.540000   2.271265   0.000000
     5  H    2.705140   2.271265   3.199295   1.070000   0.000000
     6  C    3.637999   2.511867   2.766123   1.355200   2.103938
     7  H    3.947698   2.699859   2.518221   2.107479   3.053066
     8  H    4.522006   3.492135   3.832716   2.103938   2.421527
                    6          7          8
     6  C    0.000000
     7  H    1.070000   0.000000
     8  H    1.070000   1.852234   0.000000
 Stoichiometry    C3H4O
 Framework group  CS[SG(C3H4O)]
 Deg. of freedom    13
 Full point group                 CS      NOp   2
 Largest Abelian subgroup         CS      NOp   2
 Largest concise Abelian subgroup C1      NOp   1
                         Standard orientation:                         
 ---------------------------------------------------------------------
 Center     Atomic      Atomic             Coordinates (Angstroms)
 Number     Number       Type             X           Y           Z
 ---------------------------------------------------------------------
      1          8           0       -1.241167   -1.345655   -0.000000
      2          6           0       -0.108610   -0.797124   -0.000000
      3          1           0        0.779183   -1.394387   -0.000000
      4          6           0       -0.000000    0.739042    0.000000
      5          1           0       -0.887793    1.336305    0.000000
      6          6           0        1.216145    1.337004    0.000000
      7          1           0        2.107471    0.745026   -0.000000
      8          1           0        1.285265    2.404769    0.000000
 ---------------------------------------------------------------------
 Rotational constants (GHZ):          45.0402467           4.4628788           4.0605348
 Standard basis: TZVP (5D, 7F)
 There are    80 symmetry adapted cartesian basis functions of A'  symmetry.
 There are    24 symmetry adapted cartesian basis functions of A"  symmetry.
 There are    76 symmetry adapted basis functions of A'  symmetry.
 There are    24 symmetry adapted basis functions of A"  symmetry.
   100 basis functions,   172 primitive gaussians,   104 cartesian basis functions
    15 alpha electrons       15 beta electrons
       nuclear repulsion energy       100.9303217978 Hartrees.
 NAtoms=    8 NActive=    8 NUniq=    8 SFac= 1.00D+00 NAtFMM=   60 NAOKFM=F Big=F
 Integral buffers will be    131072 words long.
 Raffenetti 2 integral format.
 Two-electron integral symmetry is turned on.
 One-electron integrals computed using PRISM.
 NBasis=   100 RedAO= T EigKep=  4.61D-04  NBF=    76    24
 NBsUse=   100 1.00D-06 EigRej= -1.00D+00 NBFU=    76    24
 ExpMin= 9.52D-02 ExpMax= 2.70D+04 ExpMxC= 9.22D+02 IAcc=3 IRadAn=         5 AccDes= 0.00D+00
 Harris functional with IExCor=20419 and IRadAn=       5 diagonalized for initial guess.
 HarFok:  IExCor=20419 AccDes= 0.00D+00 IRadAn=         5 IDoV= 1 UseB2=F ITyADJ=14
 ICtDFT=  3500011 ScaDFX=  1.000000  1.000000  1.000000  1.000000
 FoFCou: FMM=F IPFlag=           0 FMFlag=      100000 FMFlg1=           0
         NFxFlg=           0 DoJE=T BraDBF=F KetDBF=T FulRan=T
         wScrn=  0.000000 ICntrl=       500 IOpCl=  0 I1Cent=   200000004 NGrid=           0
         NMat0=    1 NMatS0=      1 NMatT0=    0 NMatD0=    1 NMtDS0=    0 NMtDT0=    0
 Petite list used in FoFCou.
 Initial guess orbital symmetries:
       Occupied  (A') (A') (A') (A') (A') (A') (A') (A') (A') (A')
                 (A') (A') (A") (A") (A')
       Virtual   (A") (A") (A') (A') (A') (A') (A') (A') (A") (A')
                 (A') (A") (A') (A") (A') (A') (A') (A') (A') (A')
                 (A') (A') (A') (A") (A') (A') (A') (A') (A') (A")
                 (A') (A") (A") (A') (A') (A') (A') (A") (A") (A")
                 (A') (A') (A') (A") (A') (A') (A') (A') (A') (A")
                 (A') (A") (A') (A") (A') (A") (A') (A') (A') (A")
                 (A') (A") (A') (A') (A") (A') (A') (A') (A") (A')
                 (A') (A') (A') (A') (A') (A") (A') (A') (A') (A')
                 (A') (A') (A') (A') (A')
 The electronic state of the initial guess is 1-A'.
 Keep R1 ints in memory in symmetry-blocked form, NReq=55822198.
 Requested convergence on RMS density matrix=1.00D-08 within 128 cycles.
 Requested convergence on MAX density matrix=1.00D-06.
 Requested convergence on             energy=1.00D-06.
 No special actions if energy rises.
 Integral accuracy reduced to 1.0D-05 until final iterations.
 Initial convergence to 1.0D-05 achieved.  Increase integral accuracy.
 SCF Done:  E(RCAM-B3LYP) =  -191.878135120     A.U. after   15 cycles
            NFock= 15  Conv=0.19D-08     -V/T= 2.0054

 **********************************************************************

            Population analysis using the SCF Density.

 **********************************************************************

 Orbital symmetries:
       Occupied  (A') (A') (A') (A') (A') (A') (A') (A') (A') (A')
                 (A') (A') (A") (A") (A')
       Virtual   (A") (A") (A') (A') (A') (A') (A') (A') (A') (A")
                 (A') (A") (A') (A") (A') (A') (A') (A') (A') (A')
                 (A') (A') (A') (A") (A') (A') (A') (A') (A') (A")
                 (A') (A") (A') (A") (A') (A') (A") (A') (A') (A")
                 (A") (A') (A') (A") (A') (A') (A') (A') (A') (A")
                 (A') (A") (A') (A") (A') (A") (A') (A') (A') (A")
                 (A') (A") (A') (A') (A") (A') (A') (A') (A") (A')
                 (A') (A') (A') (A') (A') (A") (A') (A') (A') (A')
                 (A') (A') (A') (A') (A')
 The electronic state is 1-A'.
 Alpha  occ. eigenvalues --  -19.20654 -10.35470 -10.28209 -10.28052  -1.11365
 Alpha  occ. eigenvalues --   -0.88599  -0.73010  -0.66590  -0.56525  -0.54714
 Alpha  occ. eigenvalues --   -0.49311  -0.47194  -0.46356  -0.35729  -0.33635
 Alpha virt. eigenvalues --   -0.03288   0.06706   0.09342   0.10344   0.13585
 Alpha virt. eigenvalues --    0.15364   0.17515   0.20554   0.23596   0.23935
 Alpha virt. eigenvalues --    0.27577   0.29783   0.30469   0.34633   0.35568
 Alpha virt. eigenvalues --    0.36801   0.42276   0.45491   0.46888   0.50585
 Alpha virt. eigenvalues --    0.51015   0.51301   0.54329   0.58010   0.59542
 Alpha virt. eigenvalues --    0.66398   0.70101   0.72749   0.87389   1.22326
 Alpha virt. eigenvalues --    1.25234   1.28242   1.30582   1.30658   1.31654
 Alpha virt. eigenvalues --    1.34337   1.38556   1.38637   1.45879   1.46057
 Alpha virt. eigenvalues --    1.47673   1.51395   1.55717   1.56358   1.70059
 Alpha virt. eigenvalues --    1.74187   1.80044   1.84783   1.87257   1.89454
 Alpha virt. eigenvalues --    1.91451   1.96652   1.98046   2.12042   2.13864
 Alpha virt. eigenvalues --    2.16739   2.25147   2.29452   2.39893   2.42642
 Alpha virt. eigenvalues --    2.47652   2.51582   2.52051   2.65670   2.69048
 Alpha virt. eigenvalues --    2.69310   2.72913   2.76941   2.77126   2.82076
 Alpha virt. eigenvalues --    2.86777   3.01881   3.10900   3.13500   3.19381
 Alpha virt. eigenvalues --    3.19673   3.25287   3.28533   3.50806   3.53620
 Alpha virt. eigenvalues --    4.18863  21.62702  21.93781  22.10398  43.47930
          Condensed to atoms (all electrons):
               1          2          3          4          5          6
     1  O    7.885601   0.563493  -0.050499  -0.117778   0.001711   0.014365
     2  C    0.563493   4.742680   0.429480   0.175868  -0.022019   0.028547
     3  H   -0.050499   0.429480   0.646225  -0.178613   0.003092   0.042632
     4  C   -0.117778   0.175868  -0.178613   5.545334   0.403299   0.329801
     5  H    0.001711  -0.022019   0.003092   0.403299   0.474689  -0.033084
     6  C    0.014365   0.028547   0.042632   0.329801  -0.033084   5.065509
     7  H    0.000306  -0.003811   0.001528  -0.054220   0.003757   0.420089
     8  H   -0.000394   0.003518  -0.000528  -0.020460  -0.004579   0.399379
               7          8
     1  O    0.000306  -0.000394
     2  C   -0.003811   0.003518
     3  H    0.001528  -0.000528
     4  C   -0.054220  -0.020460
     5  H    0.003757  -0.004579
     6  C    0.420089   0.399379
     7  H    0.511772  -0.022651
     8  H   -0.022651   0.503734
 Mulliken charges:
               1
     1  O   -0.296805
     2  C    0.082243
     3  H    0.106684
     4  C   -0.083231
     5  H    0.173134
     6  C   -0.267238
     7  H    0.143231
     8  H    0.141981
 Sum of Mulliken charges =  -0.00000
 Mulliken charges with hydrogens summed into heavy atoms:
               1
     1  O   -0.296805
     2  C    0.188927
     4  C    0.089903
     6  C    0.017975
 Electronic spatial extent (au):  <R**2>=            309.6853
 Charge=             -0.0000 electrons
 Dipole moment (field-independent basis, Debye):
    X=              2.8396    Y=              2.0190    Z=             -0.0000  Tot=              3.4842
 Quadrupole moment (field-independent basis, Debye-Ang):
   XX=            -25.3234   YY=            -24.0830   ZZ=            -25.4947
   XY=             -3.5928   XZ=              0.0000   YZ=             -0.0000
 Traceless Quadrupole moment (field-independent basis, Debye-Ang):
   XX=             -0.3564   YY=              0.8841   ZZ=             -0.5277
   XY=             -3.5928   XZ=              0.0000   YZ=             -0.0000
 Octapole moment (field-independent basis, Debye-Ang**2):
  XXX=              3.9430  YYY=              6.2205  ZZZ=              0.0000  XYY=              5.8721
  XXY=              4.5984  XXZ=              0.0000  XZZ=             -2.6880  YZZ=             -3.7830
  YYZ=              0.0000  XYZ=              0.0000
 Hexadecapole moment (field-independent basis, Debye-Ang**3):
 XXXX=           -155.4744 YYYY=           -212.9673 ZZZZ=            -27.8519 XXXY=            -65.7519
 XXXZ=             -0.0000 YYYX=            -64.6897 YYYZ=             -0.0000 ZZZX=             -0.0000
 ZZZY=             -0.0000 XXYY=            -64.9661 XXZZ=            -32.0721 YYZZ=            -44.0138
 XXYZ=             -0.0000 YYXZ=             -0.0000 ZZXY=            -21.4139
 N-N= 1.009303217978D+02 E-N=-6.499360485849D+02  KE= 1.908510536649D+02
 Symmetry A'   KE= 1.850839935505D+02
 Symmetry A"   KE= 5.767060114395D+00
 Calling FoFJK, ICntrl=      2127 FMM=F ISym2X=1 I1Cent= 0 IOpClX= 0 NMat=1 NMatS=1 NMatT=0.
 ***** Axes restored to original set *****
 -------------------------------------------------------------------
 Center     Atomic                   Forces (Hartrees/Bohr)
 Number     Number              X              Y              Z
 -------------------------------------------------------------------
      1        8          -0.074859834   -0.005087025   -0.000177643
      2        6           0.077354346    0.060261701    0.002104385
      3        1          -0.013403046   -0.014297451   -0.000499278
      4        6          -0.030309531   -0.041943399   -0.001464696
      5        1           0.011000239    0.003003717    0.000104892
      6        6           0.045185400   -0.000689692   -0.000024085
      7        1          -0.007700803   -0.006401480   -0.000223545
      8        1          -0.007266772    0.005153628    0.000179969
 -------------------------------------------------------------------
 Cartesian Forces:  Max     0.077354346 RMS     0.029344104

 GradGradGradGradGradGradGradGradGradGradGradGradGradGradGradGradGradGrad
 Berny optimization.
 FormGI is forming the generalized inverse of G from B-inverse, IUseBI=4.
 Internal  Forces:  Max     0.074859762 RMS     0.019544796
 Search for a local minimum.
 Step number   1 out of a maximum of   34
 All quantities printed in internal units (Hartrees-Bohrs-Radians)
 Mixed Optimization -- RFO/linear search
 Second derivative matrix not updated -- first step.
 ITU=  0
     Eigenvalues ---    0.00237   0.00237   0.01459   0.02681   0.02681
     Eigenvalues ---    0.16000   0.16000   0.16000   0.16000   0.22000
     Eigenvalues ---    0.22000   0.28519   0.37230   0.37230   0.37230
     Eigenvalues ---    0.37230   0.53930   0.80209
 RFO step:  Lambda=-1.74514777D-02 EMin= 2.36824146D-03
 Linear search not attempted -- first point.
 Iteration  1 RMS(Cart)=  0.05465334 RMS(Int)=  0.00074353
 Iteration  2 RMS(Cart)=  0.00092788 RMS(Int)=  0.00000054
 Iteration  3 RMS(Cart)=  0.00000055 RMS(Int)=  0.00000000
 ClnCor:  largest displacement from symmetrization is 1.71D-08 for atom     7.
 Variable       Old X    -DE/DX   Delta X   Delta X   Delta X     New X
                                 (Linear)    (Quad)   (Total)
    R1        2.37803  -0.07486   0.00000  -0.09134  -0.09134   2.28669
    R2        2.02201   0.01911   0.00000   0.04903   0.04903   2.07103
    R3        2.91018  -0.04090   0.00000  -0.13514  -0.13514   2.77504
    R4        2.02201   0.00813   0.00000   0.02087   0.02087   2.04288
    R5        2.56096  -0.03023   0.00000  -0.05430  -0.05430   2.50666
    R6        2.02201   0.00943   0.00000   0.02420   0.02420   2.04621
    R7        2.02201   0.00807   0.00000   0.02070   0.02070   2.04271
    A1        2.09836  -0.00108   0.00000   0.00174   0.00174   2.10010
    A2        2.09241   0.01102   0.00000   0.04641   0.04641   2.13883
    A3        2.09241  -0.00994   0.00000  -0.04815  -0.04815   2.04426
    A4        2.09241  -0.00900   0.00000  -0.04939  -0.04939   2.04302
    A5        2.09836   0.00183   0.00000   0.00773   0.00773   2.10608
    A6        2.09241   0.00716   0.00000   0.04167   0.04167   2.13408
    A7        2.09836   0.00200   0.00000   0.01127   0.01127   2.10963
    A8        2.09241   0.00282   0.00000   0.01590   0.01590   2.10831
    A9        2.09241  -0.00482   0.00000  -0.02717  -0.02717   2.06525
    D1       -0.00000   0.00000   0.00000   0.00000   0.00000   0.00000
    D2        3.14159   0.00000   0.00000   0.00000   0.00000   3.14159
    D3        3.14159  -0.00000   0.00000  -0.00000   0.00000   3.14159
    D4        0.00000  -0.00000   0.00000  -0.00000   0.00000   0.00000
    D5       -0.00000  -0.00000   0.00000  -0.00000   0.00000   0.00000
    D6        3.14159   0.00000   0.00000   0.00000  -0.00000   3.14159
    D7       -3.14159  -0.00000   0.00000  -0.00000  -0.00000   3.14159
    D8       -0.00000  -0.00000   0.00000  -0.00000   0.00000   0.00000
         Item               Value     Threshold  Converged?
 Maximum Force            0.074860     0.000450     NO 
 RMS     Force            0.019545     0.000300     NO 
 Maximum Displacement     0.110305     0.001800     NO 
 RMS     Displacement     0.055279     0.001200     NO 
 Predicted change in Energy=-9.103007D-03
 GradGradGradGradGradGradGradGradGradGradGradGradGradGradGradGradGradGrad

                          Input orientation:                          
 ---------------------------------------------------------------------
 Center     Atomic      Atomic             Coordinates (Angstroms)
 Number     Number       Type             X           Y           Z
 ---------------------------------------------------------------------
      1          8           0       -3.857055    0.715766   -0.267914
      2          6           0       -5.066526    0.753613   -0.266592
      3          1           0       -5.649234   -0.174016   -0.298986
      4          6           0       -5.817404    2.014842   -0.222549
      5          1           0       -5.241481    2.929145   -0.190621
      6          6           0       -7.143871    2.012931   -0.222616
      7          1           0       -7.698152    1.083315   -0.255079
      8          1           0       -7.698661    2.940091   -0.190239
 ---------------------------------------------------------------------
                    Distance matrix (angstroms):
                    1          2          3          4          5
     1  O    0.000000
     2  C    1.210063   0.000000
     3  H    2.001145   1.095944   0.000000
     4  C    2.352153   1.468488   2.196639   0.000000
     5  H    2.611830   2.183878   3.131711   1.081045   0.000000
     6  C    3.533814   2.429646   2.650001   1.326468   2.111767
     7  H    3.858663   2.652224   2.404345   2.099051   3.073513
     8  H    4.439773   3.422667   3.729563   2.096725   2.457204
                    6          7          8
     6  C    0.000000
     7  H    1.082806   0.000000
     8  H    1.080956   1.857908   0.000000
 Stoichiometry    C3H4O
 Framework group  CS[SG(C3H4O)]
 Deg. of freedom    13
 Full point group                 CS      NOp   2
 Largest Abelian subgroup         CS      NOp   2
 Largest concise Abelian subgroup C1      NOp   1
                         Standard orientation:                         
 ---------------------------------------------------------------------
 Center     Atomic      Atomic             Coordinates (Angstroms)
 Number     Number       Type             X           Y           Z
 ---------------------------------------------------------------------
      1          8           0       -1.207823   -1.306595   -0.000000
      2          6           0       -0.133013   -0.750684    0.000000
      3          1           0        0.793096   -1.336701    0.000000
      4          6           0       -0.000000    0.711767   -0.000000
      5          1           0       -0.914236    1.288682   -0.000000
      6          6           0        1.197522    1.282258    0.000000
      7          1           0        2.098843    0.682185    0.000000
      8          1           0        1.297830    2.358550   -0.000000
 ---------------------------------------------------------------------
 Rotational constants (GHZ):          47.7253061           4.7292393           4.3028567
 Standard basis: TZVP (5D, 7F)
 There are    80 symmetry adapted cartesian basis functions of A'  symmetry.
 There are    24 symmetry adapted cartesian basis functions of A"  symmetry.
 There are    76 symmetry adapted basis functions of A'  symmetry.
 There are    24 symmetry adapted basis functions of A"  symmetry.
   100 basis functions,   172 primitive gaussians,   104 cartesian basis functions
    15 alpha electrons       15 beta electrons
       nuclear repulsion energy       103.5996702839 Hartrees.
 NAtoms=    8 NActive=    8 NUniq=    8 SFac= 1.00D+00 NAtFMM=   60 NAOKFM=F Big=F
 Integral buffers will be    131072 words long.
 Raffenetti 2 integral format.
 Two-electron integral symmetry is turned on.
 One-electron integrals computed using PRISM.
 NBasis=   100 RedAO= T EigKep=  3.69D-04  NBF=    76    24
 NBsUse=   100 1.00D-06 EigRej= -1.00D+00 NBFU=    76    24
 Initial guess from the checkpoint file:  "Acrolein_gs.chk"
 B after Tr=     0.000000    0.000000    0.000000
         Rot=    0.999993   -0.000000   -0.000000    0.003610 Ang=   0.41 deg.
 Initial guess orbital symmetries:
       Occupied  (A') (A') (A') (A') (A') (A') (A') (A') (A') (A')
                 (A') (A') (A") (A") (A')
       Virtual   (A") (A") (A') (A') (A') (A') (A') (A') (A') (A")
                 (A') (A") (A') (A") (A') (A') (A') (A') (A') (A')
                 (A') (A') (A') (A") (A') (A') (A') (A') (A') (A")
                 (A') (A") (A') (A") (A') (A') (A") (A') (A') (A")
                 (A") (A') (A') (A") (A') (A') (A') (A') (A') (A")
                 (A') (A") (A') (A") (A') (A") (A') (A') (A') (A")
                 (A') (A") (A') (A') (A") (A') (A') (A') (A") (A')
                 (A') (A') (A') (A') (A') (A") (A') (A') (A') (A')
                 (A') (A') (A') (A') (A')
 ExpMin= 9.52D-02 ExpMax= 2.70D+04 ExpMxC= 9.22D+02 IAcc=3 IRadAn=         5 AccDes= 0.00D+00
 Harris functional with IExCor=20419 and IRadAn=       5 diagonalized for initial guess.
 HarFok:  IExCor=20419 AccDes= 0.00D+00 IRadAn=         5 IDoV= 1 UseB2=F ITyADJ=14
 ICtDFT=  3500011 ScaDFX=  1.000000  1.000000  1.000000  1.000000
 FoFCou: FMM=F IPFlag=           0 FMFlag=      100000 FMFlg1=           0
         NFxFlg=           0 DoJE=T BraDBF=F KetDBF=T FulRan=T
         wScrn=  0.000000 ICntrl=       500 IOpCl=  0 I1Cent=   200000004 NGrid=           0
         NMat0=    1 NMatS0=      1 NMatT0=    0 NMatD0=    1 NMtDS0=    0 NMtDT0=    0
 Petite list used in FoFCou.
 Keep R1 ints in memory in symmetry-blocked form, NReq=55822198.
 Requested convergence on RMS density matrix=1.00D-08 within 128 cycles.
 Requested convergence on MAX density matrix=1.00D-06.
 Requested convergence on             energy=1.00D-06.
 No special actions if energy rises.
 Integral accuracy reduced to 1.0D-05 until final iterations.
 Initial convergence to 1.0D-05 achieved.  Increase integral accuracy.
 SCF Done:  E(RCAM-B3LYP) =  -191.888020578     A.U. after   13 cycles
            NFock= 13  Conv=0.70D-08     -V/T= 2.0039
 Calling FoFJK, ICntrl=      2127 FMM=F ISym2X=1 I1Cent= 0 IOpClX= 0 NMat=1 NMatS=1 NMatT=0.
 ***** Axes restored to original set *****
 -------------------------------------------------------------------
 Center     Atomic                   Forces (Hartrees/Bohr)
 Number     Number              X              Y              Z
 -------------------------------------------------------------------
      1        8          -0.006660388   -0.002472000   -0.000086324
      2        6           0.017465265    0.008733536    0.000304982
      3        1          -0.005417774   -0.004154002   -0.000145061
      4        6          -0.006678899   -0.004351669   -0.000151964
      5        1           0.001876675    0.000424280    0.000014816
      6        6           0.003847277    0.002676783    0.000093475
      7        1          -0.001739325    0.000074386    0.000002598
      8        1          -0.002692831   -0.000931314   -0.000032522
 -------------------------------------------------------------------
 Cartesian Forces:  Max     0.017465265 RMS     0.004911327

 GradGradGradGradGradGradGradGradGradGradGradGradGradGradGradGradGradGrad
 Berny optimization.
 Using GEDIIS/GDIIS optimizer.
 FormGI is forming the generalized inverse of G from B-inverse, IUseBI=4.
 Internal  Forces:  Max     0.006579664 RMS     0.002719916
 Search for a local minimum.
 Step number   2 out of a maximum of   34
 All quantities printed in internal units (Hartrees-Bohrs-Radians)
 Mixed Optimization -- RFO/linear search
 Update second derivatives using D2CorX and points    1    2
 DE= -9.89D-03 DEPred=-9.10D-03 R= 1.09D+00
 TightC=F SS=  1.41D+00  RLast= 2.08D-01 DXNew= 5.0454D-01 6.2380D-01
 Trust test= 1.09D+00 RLast= 2.08D-01 DXMaxT set to 5.05D-01
 ITU=  1  0
 Use linear search instead of GDIIS.
     Eigenvalues ---    0.00237   0.00237   0.01522   0.02681   0.02681
     Eigenvalues ---    0.15267   0.16000   0.16000   0.16099   0.20984
     Eigenvalues ---    0.22011   0.30689   0.36041   0.37230   0.37230
     Eigenvalues ---    0.37384   0.54930   0.77921
 RFO step:  Lambda=-5.49674075D-04 EMin= 2.36824146D-03
 Quartic linear search produced a step of  0.08888.
 Iteration  1 RMS(Cart)=  0.01278728 RMS(Int)=  0.00015422
 Iteration  2 RMS(Cart)=  0.00018313 RMS(Int)=  0.00000002
 Iteration  3 RMS(Cart)=  0.00000002 RMS(Int)=  0.00000001
 ClnCor:  largest displacement from symmetrization is 1.14D-08 for atom     1.
 Variable       Old X    -DE/DX   Delta X   Delta X   Delta X     New X
                                 (Linear)    (Quad)   (Total)
    R1        2.28669  -0.00658  -0.00812  -0.00291  -0.01103   2.27566
    R2        2.07103   0.00640   0.00436   0.01502   0.01937   2.09041
    R3        2.77504   0.00094  -0.01201   0.01442   0.00241   2.77745
    R4        2.04288   0.00136   0.00186   0.00240   0.00426   2.04714
    R5        2.50666   0.00058  -0.00483   0.00496   0.00013   2.50679
    R6        2.04621   0.00083   0.00215   0.00060   0.00275   2.04896
    R7        2.04271   0.00058   0.00184   0.00015   0.00199   2.04470
    A1        2.10010  -0.00040   0.00015   0.00214   0.00230   2.10239
    A2        2.13883   0.00573   0.00413   0.02425   0.02838   2.16720
    A3        2.04426  -0.00533  -0.00428  -0.02640  -0.03068   2.01359
    A4        2.04302  -0.00252  -0.00439  -0.01024  -0.01463   2.02839
    A5        2.10608   0.00226   0.00069   0.01050   0.01119   2.11727
    A6        2.13408   0.00026   0.00370  -0.00026   0.00345   2.13753
    A7        2.10963   0.00019   0.00100   0.00019   0.00120   2.11082
    A8        2.10831   0.00275   0.00141   0.01712   0.01854   2.12685
    A9        2.06525  -0.00294  -0.00241  -0.01732  -0.01973   2.04552
    D1       -0.00000   0.00000   0.00000  -0.00000   0.00000   0.00000
    D2        3.14159   0.00000   0.00000   0.00000   0.00000   3.14159
    D3        3.14159  -0.00000   0.00000  -0.00000   0.00000   3.14159
    D4        0.00000  -0.00000   0.00000  -0.00000   0.00000   0.00000
    D5        0.00000  -0.00000   0.00000  -0.00000   0.00000   0.00000
    D6        3.14159   0.00000   0.00000  -0.00000   0.00000   3.14159
    D7        3.14159   0.00000  -0.00000   0.00000   0.00000   3.14159
    D8       -0.00000   0.00000   0.00000   0.00000   0.00000   0.00000
         Item               Value     Threshold  Converged?
 Maximum Force            0.006580     0.000450     NO 
 RMS     Force            0.002720     0.000300     NO 
 Maximum Displacement     0.030721     0.001800     NO 
 RMS     Displacement     0.012793     0.001200     NO 
 Predicted change in Energy=-3.691614D-04
 GradGradGradGradGradGradGradGradGradGradGradGradGradGradGradGradGradGrad

                          Input orientation:                          
 ---------------------------------------------------------------------
 Center     Atomic      Atomic             Coordinates (Angstroms)
 Number     Number       Type             X           Y           Z
 ---------------------------------------------------------------------
      1          8           0       -3.849573    0.701351   -0.268417
      2          6           0       -5.052329    0.760801   -0.266341
      3          1           0       -5.659490   -0.163311   -0.298612
      4          6           0       -5.816781    2.015353   -0.222531
      5          1           0       -5.235654    2.929032   -0.190625
      6          6           0       -7.143319    2.014668   -0.222555
      7          1           0       -7.700320    1.084981   -0.255020
      8          1           0       -7.714918    2.932812   -0.190493
 ---------------------------------------------------------------------
                    Distance matrix (angstroms):
                    1          2          3          4          5
     1  O    0.000000
     2  C    1.204226   0.000000
     3  H    2.006079   1.106196   0.000000
     4  C    2.366139   1.469764   2.185659   0.000000
     5  H    2.624850   2.177284   3.123121   1.083299   0.000000
     6  C    3.546219   2.438512   2.636499   1.326538   2.115719
     7  H    3.869832   2.667785   2.392722   2.101039   3.078839
     8  H    4.463898   3.436971   3.717856   2.108479   2.479266
                    6          7          8
     6  C    0.000000
     7  H    1.084261   0.000000
     8  H    1.082008   1.849015   0.000000
 Stoichiometry    C3H4O
 Framework group  CS[SG(C3H4O)]
 Deg. of freedom    13
 Full point group                 CS      NOp   2
 Largest Abelian subgroup         CS      NOp   2
 Largest concise Abelian subgroup C1      NOp   1
                         Standard orientation:                         
 ---------------------------------------------------------------------
 Center     Atomic      Atomic             Coordinates (Angstroms)
 Number     Number       Type             X           Y           Z
 ---------------------------------------------------------------------
      1          8           0       -1.200933   -1.323280    0.000000
      2          6           0       -0.143377   -0.747316    0.000000
      3          1           0        0.805135   -1.316522    0.000000
      4          6           0       -0.000000    0.715438   -0.000000
      5          1           0       -0.920526    1.286549    0.000000
      6          6           0        1.195188    1.290964   -0.000000
      7          1           0        2.100939    0.694947   -0.000000
      8          1           0        1.311048    2.366752   -0.000000
 ---------------------------------------------------------------------
 Rotational constants (GHZ):          48.4908591           4.6894166           4.2759057
 Standard basis: TZVP (5D, 7F)
 There are    80 symmetry adapted cartesian basis functions of A'  symmetry.
 There are    24 symmetry adapted cartesian basis functions of A"  symmetry.
 There are    76 symmetry adapted basis functions of A'  symmetry.
 There are    24 symmetry adapted basis functions of A"  symmetry.
   100 basis functions,   172 primitive gaussians,   104 cartesian basis functions
    15 alpha electrons       15 beta electrons
       nuclear repulsion energy       103.5060098145 Hartrees.
 NAtoms=    8 NActive=    8 NUniq=    8 SFac= 1.00D+00 NAtFMM=   60 NAOKFM=F Big=F
 Integral buffers will be    131072 words long.
 Raffenetti 2 integral format.
 Two-electron integral symmetry is turned on.
 One-electron integrals computed using PRISM.
 NBasis=   100 RedAO= T EigKep=  3.64D-04  NBF=    76    24
 NBsUse=   100 1.00D-06 EigRej= -1.00D+00 NBFU=    76    24
 Initial guess from the checkpoint file:  "Acrolein_gs.chk"
 B after Tr=     0.000000    0.000000    0.000000
         Rot=    0.999997   -0.000000   -0.000000   -0.002304 Ang=  -0.26 deg.
 Initial guess orbital symmetries:
       Occupied  (A') (A') (A') (A') (A') (A') (A') (A') (A') (A')
                 (A') (A") (A') (A") (A')
       Virtual   (A") (A") (A') (A') (A') (A') (A') (A') (A") (A')
                 (A') (A") (A') (A") (A') (A') (A') (A') (A') (A')
                 (A') (A') (A') (A") (A') (A') (A') (A') (A') (A")
                 (A') (A") (A") (A') (A') (A') (A") (A') (A") (A')
                 (A") (A') (A') (A") (A') (A') (A') (A') (A') (A")
                 (A') (A") (A') (A") (A') (A") (A') (A') (A") (A')
                 (A') (A') (A") (A') (A") (A') (A') (A') (A") (A')
                 (A') (A') (A') (A') (A') (A") (A') (A') (A') (A')
                 (A') (A') (A') (A') (A')
 ExpMin= 9.52D-02 ExpMax= 2.70D+04 ExpMxC= 9.22D+02 IAcc=3 IRadAn=         5 AccDes= 0.00D+00
 Harris functional with IExCor=20419 and IRadAn=       5 diagonalized for initial guess.
 HarFok:  IExCor=20419 AccDes= 0.00D+00 IRadAn=         5 IDoV= 1 UseB2=F ITyADJ=14
 ICtDFT=  3500011 ScaDFX=  1.000000  1.000000  1.000000  1.000000
 FoFCou: FMM=F IPFlag=           0 FMFlag=      100000 FMFlg1=           0
         NFxFlg=           0 DoJE=T BraDBF=F KetDBF=T FulRan=T
         wScrn=  0.000000 ICntrl=       500 IOpCl=  0 I1Cent=   200000004 NGrid=           0
         NMat0=    1 NMatS0=      1 NMatT0=    0 NMatD0=    1 NMtDS0=    0 NMtDT0=    0
 Petite list used in FoFCou.
 Keep R1 ints in memory in symmetry-blocked form, NReq=55822198.
 Requested convergence on RMS density matrix=1.00D-08 within 128 cycles.
 Requested convergence on MAX density matrix=1.00D-06.
 Requested convergence on             energy=1.00D-06.
 No special actions if energy rises.
 Integral accuracy reduced to 1.0D-05 until final iterations.
 Initial convergence to 1.0D-05 achieved.  Increase integral accuracy.
 SCF Done:  E(RCAM-B3LYP) =  -191.888395311     A.U. after   11 cycles
            NFock= 11  Conv=0.53D-08     -V/T= 2.0039
 Calling FoFJK, ICntrl=      2127 FMM=F ISym2X=1 I1Cent= 0 IOpClX= 0 NMat=1 NMatS=1 NMatT=0.
 ***** Axes restored to original set *****
 -------------------------------------------------------------------
 Center     Atomic                   Forces (Hartrees/Bohr)
 Number     Number              X              Y              Z
 -------------------------------------------------------------------
      1        8          -0.000297058    0.000600950    0.000020986
      2        6           0.001518001   -0.000518249   -0.000018098
      3        1          -0.001364871   -0.000766108   -0.000026753
      4        6          -0.001363989    0.000695235    0.000024278
      5        1           0.000057162    0.000354735    0.000012388
      6        6           0.002234644    0.000097040    0.000003389
      7        1          -0.000450702    0.000015736    0.000000550
      8        1          -0.000333187   -0.000479340   -0.000016739
 -------------------------------------------------------------------
 Cartesian Forces:  Max     0.002234644 RMS     0.000749854

 GradGradGradGradGradGradGradGradGradGradGradGradGradGradGradGradGradGrad
 Berny optimization.
 Using GEDIIS/GDIIS optimizer.
 FormGI is forming the generalized inverse of G from B-inverse, IUseBI=4.
 Internal  Forces:  Max     0.001450519 RMS     0.000573103
 Search for a local minimum.
 Step number   3 out of a maximum of   34
 All quantities printed in internal units (Hartrees-Bohrs-Radians)
 Mixed Optimization -- En-DIIS/RFO-DIIS
 Update second derivatives using D2CorX and points    1    2    3
 DE= -3.75D-04 DEPred=-3.69D-04 R= 1.02D+00
 TightC=F SS=  1.41D+00  RLast= 5.81D-02 DXNew= 8.4853D-01 1.7415D-01
 Trust test= 1.02D+00 RLast= 5.81D-02 DXMaxT set to 5.05D-01
 ITU=  1  1  0
 Use linear search instead of GDIIS.
     Eigenvalues ---    0.00237   0.00237   0.01534   0.02681   0.02681
     Eigenvalues ---    0.13654   0.16000   0.16024   0.16229   0.21619
     Eigenvalues ---    0.24328   0.30593   0.34284   0.37230   0.37262
     Eigenvalues ---    0.37387   0.55293   0.78550
 RFO step:  Lambda=-3.00214092D-05 EMin= 2.36824146D-03
 Quartic linear search produced a step of  0.06843.
 Iteration  1 RMS(Cart)=  0.00466431 RMS(Int)=  0.00001460
 Iteration  2 RMS(Cart)=  0.00001590 RMS(Int)=  0.00000000
 Iteration  3 RMS(Cart)=  0.00000000 RMS(Int)=  0.00000000
 ClnCor:  largest displacement from symmetrization is 1.09D-08 for atom     6.
 Variable       Old X    -DE/DX   Delta X   Delta X   Delta X     New X
                                 (Linear)    (Quad)   (Total)
    R1        2.27566  -0.00033  -0.00075  -0.00045  -0.00121   2.27445
    R2        2.09041   0.00139   0.00133   0.00368   0.00501   2.09542
    R3        2.77745   0.00051   0.00017   0.00161   0.00178   2.77923
    R4        2.04714   0.00033   0.00029   0.00090   0.00119   2.04833
    R5        2.50679  -0.00145   0.00001  -0.00302  -0.00301   2.50379
    R6        2.04896   0.00022   0.00019   0.00062   0.00081   2.04976
    R7        2.04470  -0.00023   0.00014  -0.00066  -0.00053   2.04417
    A1        2.10239   0.00095   0.00016   0.00591   0.00607   2.10846
    A2        2.16720  -0.00039   0.00194  -0.00243  -0.00049   2.16672
    A3        2.01359  -0.00056  -0.00210  -0.00348  -0.00558   2.00801
    A4        2.02839   0.00060  -0.00100   0.00345   0.00245   2.03083
    A5        2.11727  -0.00090   0.00077  -0.00462  -0.00386   2.11341
    A6        2.13753   0.00031   0.00024   0.00117   0.00141   2.13894
    A7        2.11082   0.00017   0.00008   0.00114   0.00122   2.11205
    A8        2.12685   0.00046   0.00127   0.00270   0.00397   2.13081
    A9        2.04552  -0.00064  -0.00135  -0.00384  -0.00519   2.04032
    D1       -0.00000   0.00000   0.00000  -0.00000   0.00000   0.00000
    D2        3.14159   0.00000  -0.00000  -0.00000   0.00000   3.14159
    D3        3.14159  -0.00000   0.00000  -0.00000   0.00000   3.14159
    D4        0.00000  -0.00000  -0.00000  -0.00000  -0.00000   0.00000
    D5        0.00000  -0.00000  -0.00000  -0.00000   0.00000   0.00000
    D6        3.14159  -0.00000   0.00000  -0.00000   0.00000   3.14159
    D7        3.14159   0.00000   0.00000  -0.00000   0.00000  -3.14159
    D8       -0.00000   0.00000   0.00000   0.00000   0.00000   0.00000
         Item               Value     Threshold  Converged?
 Maximum Force            0.001451     0.000450     NO 
 RMS     Force            0.000573     0.000300     NO 
 Maximum Displacement     0.014933     0.001800     NO 
 RMS     Displacement     0.004670     0.001200     NO 
 Predicted change in Energy=-1.652678D-05
 GradGradGradGradGradGradGradGradGradGradGradGradGradGradGradGradGradGrad

                          Input orientation:                          
 ---------------------------------------------------------------------
 Center     Atomic      Atomic             Coordinates (Angstroms)
 Number     Number       Type             X           Y           Z
 ---------------------------------------------------------------------
      1          8           0       -3.850079    0.700238   -0.268456
      2          6           0       -5.052130    0.761005   -0.266334
      3          1           0       -5.667393   -0.160925   -0.298528
      4          6           0       -5.815049    2.017587   -0.222453
      5          1           0       -5.234350    2.932285   -0.190511
      6          6           0       -7.139990    2.013926   -0.222581
      7          1           0       -7.696257    1.083303   -0.255079
      8          1           0       -7.717138    2.928267   -0.190651
 ---------------------------------------------------------------------
                    Distance matrix (angstroms):
                    1          2          3          4          5
     1  O    0.000000
     2  C    1.203587   0.000000
     3  H    2.011252   1.108846   0.000000
     4  C    2.366142   1.470704   2.184835   0.000000
     5  H    2.627606   2.180232   3.125243   1.083930   0.000000
     6  C    3.542794   2.435341   2.627601   1.324946   2.115627
     7  H    3.865230   2.663721   2.380396   2.100690   3.079593
     8  H    4.463666   3.435844   3.708936   2.109098   2.482792
                    6          7          8
     6  C    0.000000
     7  H    1.084689   0.000000
     8  H    1.081730   1.846207   0.000000
 Stoichiometry    C3H4O
 Framework group  CS[SG(C3H4O)]
 Deg. of freedom    13
 Full point group                 CS      NOp   2
 Largest Abelian subgroup         CS      NOp   2
 Largest concise Abelian subgroup C1      NOp   1
                         Standard orientation:                         
 ---------------------------------------------------------------------
 Center     Atomic      Atomic             Coordinates (Angstroms)
 Number     Number       Type             X           Y           Z
 ---------------------------------------------------------------------
      1          8           0       -1.202689   -1.320676   -0.000000
      2          6           0       -0.144865   -0.746541   -0.000000
      3          1           0        0.808547   -1.312708   -0.000000
      4          6           0       -0.000000    0.717011    0.000000
      5          1           0       -0.919114    1.291583    0.000000
      6          6           0        1.196506    1.286095    0.000000
      7          1           0        2.100469    0.686597    0.000000
      8          1           0        1.321772    2.360547    0.000000
 ---------------------------------------------------------------------
 Rotational constants (GHZ):          48.3567742           4.6970846           4.2812316
 Standard basis: TZVP (5D, 7F)
 There are    80 symmetry adapted cartesian basis functions of A'  symmetry.
 There are    24 symmetry adapted cartesian basis functions of A"  symmetry.
 There are    76 symmetry adapted basis functions of A'  symmetry.
 There are    24 symmetry adapted basis functions of A"  symmetry.
   100 basis functions,   172 primitive gaussians,   104 cartesian basis functions
    15 alpha electrons       15 beta electrons
       nuclear repulsion energy       103.5346285671 Hartrees.
 NAtoms=    8 NActive=    8 NUniq=    8 SFac= 1.00D+00 NAtFMM=   60 NAOKFM=F Big=F
 Integral buffers will be    131072 words long.
 Raffenetti 2 integral format.
 Two-electron integral symmetry is turned on.
 One-electron integrals computed using PRISM.
 NBasis=   100 RedAO= T EigKep=  3.62D-04  NBF=    76    24
 NBsUse=   100 1.00D-06 EigRej= -1.00D+00 NBFU=    76    24
 Initial guess from the checkpoint file:  "Acrolein_gs.chk"
 B after Tr=    -0.000000   -0.000000   -0.000000
         Rot=    0.999999   -0.000000   -0.000000    0.001076 Ang=   0.12 deg.
 Initial guess orbital symmetries:
       Occupied  (A') (A') (A') (A') (A') (A') (A') (A') (A') (A')
                 (A') (A") (A') (A") (A')
       Virtual   (A") (A") (A') (A') (A') (A') (A') (A') (A") (A')
                 (A') (A") (A') (A") (A') (A') (A') (A') (A') (A')
                 (A') (A') (A') (A") (A') (A') (A') (A') (A') (A")
                 (A') (A") (A") (A') (A') (A') (A") (A') (A") (A')
                 (A") (A') (A') (A") (A') (A') (A') (A') (A') (A")
                 (A') (A") (A') (A") (A") (A') (A') (A') (A") (A')
                 (A') (A') (A") (A') (A") (A') (A') (A') (A") (A')
                 (A') (A') (A') (A') (A') (A') (A") (A') (A') (A')
                 (A') (A') (A') (A') (A')
 Keep R1 ints in memory in symmetry-blocked form, NReq=55822198.
 Requested convergence on RMS density matrix=1.00D-08 within 128 cycles.
 Requested convergence on MAX density matrix=1.00D-06.
 Requested convergence on             energy=1.00D-06.
 No special actions if energy rises.
 SCF Done:  E(RCAM-B3LYP) =  -191.888412764     A.U. after    9 cycles
            NFock=  9  Conv=0.61D-08     -V/T= 2.0039
 Calling FoFJK, ICntrl=      2127 FMM=F ISym2X=1 I1Cent= 0 IOpClX= 0 NMat=1 NMatS=1 NMatT=0.
 ***** Axes restored to original set *****
 -------------------------------------------------------------------
 Center     Atomic                   Forces (Hartrees/Bohr)
 Number     Number              X              Y              Z
 -------------------------------------------------------------------
      1        8           0.000087922   -0.000059162   -0.000002066
      2        6          -0.000090122   -0.000362960   -0.000012675
      3        1           0.000051639    0.000068262    0.000002384
      4        6           0.000413821    0.000546922    0.000019099
      5        1          -0.000125923   -0.000083689   -0.000002922
      6        6          -0.000137023   -0.000086492   -0.000003020
      7        1          -0.000075828    0.000035956    0.000001256
      8        1          -0.000124485   -0.000058837   -0.000002055
 -------------------------------------------------------------------
 Cartesian Forces:  Max     0.000546922 RMS     0.000171327

 GradGradGradGradGradGradGradGradGradGradGradGradGradGradGradGradGradGrad
 Berny optimization.
 Using GEDIIS/GDIIS optimizer.
 FormGI is forming the generalized inverse of G from B-inverse, IUseBI=4.
 Internal  Forces:  Max     0.000337672 RMS     0.000136162
 Search for a local minimum.
 Step number   4 out of a maximum of   34
 All quantities printed in internal units (Hartrees-Bohrs-Radians)
 Mixed Optimization -- En-DIIS/RFO-DIIS
 Swapping is turned off.
 Update second derivatives using D2CorX and points    1    2    3    4
 DE= -1.75D-05 DEPred=-1.65D-05 R= 1.06D+00
 TightC=F SS=  1.41D+00  RLast= 1.33D-02 DXNew= 8.4853D-01 3.9832D-02
 Trust test= 1.06D+00 RLast= 1.33D-02 DXMaxT set to 5.05D-01
 ITU=  1  1  1  0
     Eigenvalues ---    0.00237   0.00237   0.01534   0.02681   0.02681
     Eigenvalues ---    0.12205   0.16008   0.16143   0.16260   0.21084
     Eigenvalues ---    0.23772   0.29277   0.36066   0.37232   0.37290
     Eigenvalues ---    0.37632   0.59222   0.77904
 En-DIIS/RFO-DIIS/Sim-DIIS IScMMF=       -3 using points:     4    3
 RFO step:  Lambda=-1.71957431D-06.
 DidBck=F Rises=F RFO-DIIS coefs:    1.13399   -0.13399
 Iteration  1 RMS(Cart)=  0.00127194 RMS(Int)=  0.00000090
 Iteration  2 RMS(Cart)=  0.00000117 RMS(Int)=  0.00000000
 Iteration  3 RMS(Cart)=  0.00000000 RMS(Int)=  0.00000001
 ClnCor:  largest displacement from symmetrization is 7.36D-09 for atom     2.
 Variable       Old X    -DE/DX   Delta X   Delta X   Delta X     New X
                                 (Linear)    (Quad)   (Total)
    R1        2.27445   0.00009  -0.00016   0.00016  -0.00001   2.27445
    R2        2.09542  -0.00009   0.00067  -0.00064   0.00003   2.09545
    R3        2.77923   0.00033   0.00024   0.00096   0.00119   2.78042
    R4        2.04833  -0.00014   0.00016  -0.00048  -0.00032   2.04801
    R5        2.50379   0.00034  -0.00040   0.00089   0.00049   2.50427
    R6        2.04976   0.00001   0.00011  -0.00003   0.00008   2.04984
    R7        2.04417   0.00002  -0.00007   0.00011   0.00004   2.04421
    A1        2.10846  -0.00004   0.00081  -0.00076   0.00005   2.10851
    A2        2.16672   0.00008  -0.00007   0.00048   0.00042   2.16714
    A3        2.00801  -0.00003  -0.00075   0.00028  -0.00047   2.00754
    A4        2.03083   0.00021   0.00033   0.00085   0.00118   2.03201
    A5        2.11341  -0.00030  -0.00052  -0.00105  -0.00157   2.11185
    A6        2.13894   0.00008   0.00019   0.00020   0.00039   2.13933
    A7        2.11205   0.00002   0.00016   0.00004   0.00020   2.11225
    A8        2.13081   0.00013   0.00053   0.00052   0.00106   2.13187
    A9        2.04032  -0.00015  -0.00070  -0.00056  -0.00126   2.03907
    D1       -0.00000   0.00000  -0.00000   0.00000   0.00000  -0.00000
    D2        3.14159   0.00000   0.00000   0.00000   0.00000   3.14159
    D3        3.14159  -0.00000   0.00000   0.00000   0.00000   3.14159
    D4        0.00000  -0.00000   0.00000  -0.00000   0.00000   0.00000
    D5        0.00000  -0.00000   0.00000   0.00000  -0.00000  -0.00000
    D6        3.14159  -0.00000  -0.00000   0.00000   0.00000   3.14159
    D7        3.14159  -0.00000   0.00000  -0.00000   0.00000   3.14159
    D8        0.00000  -0.00000   0.00000   0.00000   0.00000   0.00000
         Item               Value     Threshold  Converged?
 Maximum Force            0.000338     0.000450     YES
 RMS     Force            0.000136     0.000300     YES
 Maximum Displacement     0.002793     0.001800     NO 
 RMS     Displacement     0.001272     0.001200     NO 
 Predicted change in Energy=-8.597933D-07
 GradGradGradGradGradGradGradGradGradGradGradGradGradGradGradGradGradGrad

                          Input orientation:                          
 ---------------------------------------------------------------------
 Center     Atomic      Atomic             Coordinates (Angstroms)
 Number     Number       Type             X           Y           Z
 ---------------------------------------------------------------------
      1          8           0       -3.850100    0.698760   -0.268508
      2          6           0       -5.052075    0.760950   -0.266336
      3          1           0       -5.668486   -0.160235   -0.298504
      4          6           0       -5.814356    2.018657   -0.222416
      5          1           0       -5.234122    2.933451   -0.190470
      6          6           0       -7.139552    2.013936   -0.222581
      7          1           0       -7.695284    1.082944   -0.255092
      8          1           0       -7.718408    2.927223   -0.190688
 ---------------------------------------------------------------------
                    Distance matrix (angstroms):
                    1          2          3          4          5
     1  O    0.000000
     2  C    1.203585   0.000000
     3  H    2.011293   1.108863   0.000000
     4  C    2.366971   1.471336   2.185094   0.000000
     5  H    2.629724   2.181434   3.125897   1.083762   0.000000
     6  C    3.542921   2.435046   2.626179   1.325204   2.115940
     7  H    3.864351   2.662772   2.378085   2.101074   3.079913
     8  H    4.464964   3.436247   3.707587   2.109956   2.484294
                    6          7          8
     6  C    0.000000
     7  H    1.084730   0.000000
     8  H    1.081751   1.845548   0.000000
 Stoichiometry    C3H4O
 Framework group  CS[SG(C3H4O)]
 Deg. of freedom    13
 Full point group                 CS      NOp   2
 Largest Abelian subgroup         CS      NOp   2
 Largest concise Abelian subgroup C1      NOp   1
                         Standard orientation:                         
 ---------------------------------------------------------------------
 Center     Atomic      Atomic             Coordinates (Angstroms)
 Number     Number       Type             X           Y           Z
 ---------------------------------------------------------------------
      1          8           0       -1.203752   -1.320104   -0.000000
      2          6           0       -0.145820   -0.746174   -0.000000
      3          1           0        0.807526   -1.312485    0.000000
      4          6           0       -0.000000    0.717918    0.000000
      5          1           0       -0.917943    1.294042   -0.000000
      6          6           0        1.197975    1.284506    0.000000
      7          1           0        2.100788    0.683201    0.000000
      8          1           0        1.326717    2.358569    0.000000
 ---------------------------------------------------------------------
 Rotational constants (GHZ):          48.3119741           4.6964412           4.2803457
 Standard basis: TZVP (5D, 7F)
 There are    80 symmetry adapted cartesian basis functions of A'  symmetry.
 There are    24 symmetry adapted cartesian basis functions of A"  symmetry.
 There are    76 symmetry adapted basis functions of A'  symmetry.
 There are    24 symmetry adapted basis functions of A"  symmetry.
   100 basis functions,   172 primitive gaussians,   104 cartesian basis functions
    15 alpha electrons       15 beta electrons
       nuclear repulsion energy       103.5211965168 Hartrees.
 NAtoms=    8 NActive=    8 NUniq=    8 SFac= 1.00D+00 NAtFMM=   60 NAOKFM=F Big=F
 Integral buffers will be    131072 words long.
 Raffenetti 2 integral format.
 Two-electron integral symmetry is turned on.
 One-electron integrals computed using PRISM.
 NBasis=   100 RedAO= T EigKep=  3.63D-04  NBF=    76    24
 NBsUse=   100 1.00D-06 EigRej= -1.00D+00 NBFU=    76    24
 Initial guess from the checkpoint file:  "Acrolein_gs.chk"
 B after Tr=     0.000000    0.000000   -0.000000
         Rot=    1.000000   -0.000000   -0.000000    0.000522 Ang=   0.06 deg.
 Initial guess orbital symmetries:
       Occupied  (A') (A') (A') (A') (A') (A') (A') (A') (A') (A')
                 (A') (A") (A') (A") (A')
       Virtual   (A") (A") (A') (A') (A') (A') (A') (A') (A") (A')
                 (A') (A") (A') (A") (A') (A') (A') (A') (A') (A')
                 (A') (A') (A') (A") (A') (A') (A') (A') (A') (A")
                 (A') (A") (A") (A') (A') (A') (A") (A') (A") (A')
                 (A") (A') (A') (A") (A') (A') (A') (A') (A') (A")
                 (A') (A") (A') (A") (A") (A') (A') (A') (A") (A')
                 (A') (A') (A") (A') (A") (A') (A') (A') (A") (A')
                 (A') (A') (A') (A') (A') (A') (A') (A") (A') (A')
                 (A') (A') (A') (A') (A')
 Keep R1 ints in memory in symmetry-blocked form, NReq=55822198.
 Requested convergence on RMS density matrix=1.00D-08 within 128 cycles.
 Requested convergence on MAX density matrix=1.00D-06.
 Requested convergence on             energy=1.00D-06.
 No special actions if energy rises.
 SCF Done:  E(RCAM-B3LYP) =  -191.888413759     A.U. after    8 cycles
            NFock=  8  Conv=0.97D-08     -V/T= 2.0039
 Calling FoFJK, ICntrl=      2127 FMM=F ISym2X=1 I1Cent= 0 IOpClX= 0 NMat=1 NMatS=1 NMatT=0.
 ***** Axes restored to original set *****
 -------------------------------------------------------------------
 Center     Atomic                   Forces (Hartrees/Bohr)
 Number     Number              X              Y              Z
 -------------------------------------------------------------------
      1        8           0.000006218   -0.000021227   -0.000000741
      2        6          -0.000119181   -0.000061378   -0.000002143
      3        1           0.000058928    0.000083950    0.000002932
      4        6           0.000103250    0.000062919    0.000002197
      5        1          -0.000048364   -0.000030370   -0.000001061
      6        6           0.000011055   -0.000045574   -0.000001591
      7        1           0.000007137    0.000010281    0.000000359
      8        1          -0.000019043    0.000001399    0.000000049
 -------------------------------------------------------------------
 Cartesian Forces:  Max     0.000119181 RMS     0.000045463

 GradGradGradGradGradGradGradGradGradGradGradGradGradGradGradGradGradGrad
 Berny optimization.
 Using GEDIIS/GDIIS optimizer.
 FormGI is forming the generalized inverse of G from B-inverse, IUseBI=4.
 Internal  Forces:  Max     0.000102611 RMS     0.000036207
 Search for a local minimum.
 Step number   5 out of a maximum of   34
 All quantities printed in internal units (Hartrees-Bohrs-Radians)
 Mixed Optimization -- En-DIIS/RFO-DIIS
 Swapping is turned off.
 Update second derivatives using D2CorX and points    1    2    3    4    5
 DE= -9.95D-07 DEPred=-8.60D-07 R= 1.16D+00
 Trust test= 1.16D+00 RLast= 2.98D-03 DXMaxT set to 5.05D-01
 ITU=  0  1  1  1  0
     Eigenvalues ---    0.00237   0.00237   0.01533   0.02681   0.02681
     Eigenvalues ---    0.10966   0.15744   0.16054   0.16338   0.18961
     Eigenvalues ---    0.23496   0.31721   0.35838   0.37126   0.37276
     Eigenvalues ---    0.37583   0.60332   0.79622
 En-DIIS/RFO-DIIS/Sim-DIIS IScMMF=       -3 using points:     5    4    3
 RFO step:  Lambda=-1.54774826D-07.
 DidBck=F Rises=F RFO-DIIS coefs:    1.28219   -0.29131    0.00911
 Iteration  1 RMS(Cart)=  0.00053057 RMS(Int)=  0.00000011
 Iteration  2 RMS(Cart)=  0.00000014 RMS(Int)=  0.00000000
 ClnCor:  largest displacement from symmetrization is 5.87D-09 for atom     6.
 Variable       Old X    -DE/DX   Delta X   Delta X   Delta X     New X
                                 (Linear)    (Quad)   (Total)
    R1        2.27445   0.00001   0.00001   0.00000   0.00001   2.27446
    R2        2.09545  -0.00010  -0.00004  -0.00025  -0.00028   2.09517
    R3        2.78042  -0.00003   0.00032  -0.00035  -0.00003   2.78039
    R4        2.04801  -0.00005  -0.00010  -0.00007  -0.00017   2.04784
    R5        2.50427   0.00000   0.00017  -0.00015   0.00001   2.50429
    R6        2.04984  -0.00001   0.00001  -0.00005  -0.00003   2.04981
    R7        2.04421   0.00001   0.00002   0.00002   0.00003   2.04425
    A1        2.10851  -0.00002  -0.00004  -0.00000  -0.00005   2.10846
    A2        2.16714   0.00003   0.00012   0.00007   0.00019   2.16733
    A3        2.00754  -0.00001  -0.00008  -0.00007  -0.00015   2.00739
    A4        2.03201   0.00007   0.00031   0.00021   0.00052   2.03253
    A5        2.11185  -0.00010  -0.00041  -0.00022  -0.00062   2.11122
    A6        2.13933   0.00002   0.00010   0.00001   0.00010   2.13943
    A7        2.11225  -0.00001   0.00005  -0.00011  -0.00007   2.11218
    A8        2.13187   0.00002   0.00026  -0.00000   0.00026   2.13213
    A9        2.03907  -0.00001  -0.00031   0.00012  -0.00019   2.03888
    D1        0.00000  -0.00000   0.00000  -0.00000   0.00000   0.00000
    D2        3.14159  -0.00000   0.00000  -0.00000  -0.00000   3.14159
    D3        3.14159   0.00000   0.00000  -0.00000   0.00000   3.14159
    D4       -0.00000   0.00000   0.00000   0.00000   0.00000   0.00000
    D5       -0.00000   0.00000   0.00000  -0.00000   0.00000   0.00000
    D6        3.14159  -0.00000   0.00000  -0.00000   0.00000   3.14159
    D7        3.14159   0.00000   0.00000   0.00000   0.00000   3.14159
    D8        0.00000  -0.00000   0.00000  -0.00000   0.00000   0.00000
         Item               Value     Threshold  Converged?
 Maximum Force            0.000103     0.000450     YES
 RMS     Force            0.000036     0.000300     YES
 Maximum Displacement     0.001141     0.001800     YES
 RMS     Displacement     0.000531     0.001200     YES
 Predicted change in Energy=-7.737361D-08
 Optimization completed.
    -- Stationary point found.
                           ----------------------------
                           !   Optimized Parameters   !
                           ! (Angstroms and Degrees)  !
 --------------------------                            --------------------------
 ! Name  Definition              Value          Derivative Info.                !
 --------------------------------------------------------------------------------
 ! R1    R(1,2)                  1.2036         -DE/DX =    0.0                 !
 ! R2    R(2,3)                  1.1089         -DE/DX =   -0.0001              !
 ! R3    R(2,4)                  1.4713         -DE/DX =    0.0                 !
 ! R4    R(4,5)                  1.0838         -DE/DX =   -0.0001              !
 ! R5    R(4,6)                  1.3252         -DE/DX =    0.0                 !
 ! R6    R(6,7)                  1.0847         -DE/DX =    0.0                 !
 ! R7    R(6,8)                  1.0818         -DE/DX =    0.0                 !
 ! A1    A(1,2,3)              120.8087         -DE/DX =    0.0                 !
 ! A2    A(1,2,4)              124.1677         -DE/DX =    0.0                 !
 ! A3    A(3,2,4)              115.0236         -DE/DX =    0.0                 !
 ! A4    A(2,4,5)              116.4256         -DE/DX =    0.0001              !
 ! A5    A(2,4,6)              120.9998         -DE/DX =   -0.0001              !
 ! A6    A(5,4,6)              122.5746         -DE/DX =    0.0                 !
 ! A7    A(4,6,7)              121.0229         -DE/DX =    0.0                 !
 ! A8    A(4,6,8)              122.1471         -DE/DX =    0.0                 !
 ! A9    A(7,6,8)              116.83           -DE/DX =    0.0                 !
 ! D1    D(1,2,4,5)              0.0            -DE/DX =    0.0                 !
 ! D2    D(1,2,4,6)            180.0            -DE/DX =    0.0                 !
 ! D3    D(3,2,4,5)            180.0            -DE/DX =    0.0                 !
 ! D4    D(3,2,4,6)              0.0            -DE/DX =    0.0                 !
 ! D5    D(2,4,6,7)              0.0            -DE/DX =    0.0                 !
 ! D6    D(2,4,6,8)            180.0            -DE/DX =    0.0                 !
 ! D7    D(5,4,6,7)            180.0            -DE/DX =    0.0                 !
 ! D8    D(5,4,6,8)              0.0            -DE/DX =    0.0                 !
 --------------------------------------------------------------------------------
 GradGradGradGradGradGradGradGradGradGradGradGradGradGradGradGradGradGrad

                          Input orientation:                          
 ---------------------------------------------------------------------
 Center     Atomic      Atomic             Coordinates (Angstroms)
 Number     Number       Type             X           Y           Z
 ---------------------------------------------------------------------
      1          8           0       -3.850100    0.698760   -0.268508
      2          6           0       -5.052075    0.760950   -0.266336
      3          1           0       -5.668486   -0.160235   -0.298504
      4          6           0       -5.814356    2.018657   -0.222416
      5          1           0       -5.234122    2.933451   -0.190470
      6          6           0       -7.139552    2.013936   -0.222581
      7          1           0       -7.695284    1.082944   -0.255092
      8          1           0       -7.718408    2.927223   -0.190688
 ---------------------------------------------------------------------
                    Distance matrix (angstroms):
                    1          2          3          4          5
     1  O    0.000000
     2  C    1.203585   0.000000
     3  H    2.011293   1.108863   0.000000
     4  C    2.366971   1.471336   2.185094   0.000000
     5  H    2.629724   2.181434   3.125897   1.083762   0.000000
     6  C    3.542921   2.435046   2.626179   1.325204   2.115940
     7  H    3.864351   2.662772   2.378085   2.101074   3.079913
     8  H    4.464964   3.436247   3.707587   2.109956   2.484294
                    6          7          8
     6  C    0.000000
     7  H    1.084730   0.000000
     8  H    1.081751   1.845548   0.000000
 Stoichiometry    C3H4O
 Framework group  CS[SG(C3H4O)]
 Deg. of freedom    13
 Full point group                 CS      NOp   2
 Largest Abelian subgroup         CS      NOp   2
 Largest concise Abelian subgroup C1      NOp   1
                         Standard orientation:                         
 ---------------------------------------------------------------------
 Center     Atomic      Atomic             Coordinates (Angstroms)
 Number     Number       Type             X           Y           Z
 ---------------------------------------------------------------------
      1          8           0       -1.203752   -1.320104   -0.000000
      2          6           0       -0.145820   -0.746174   -0.000000
      3          1           0        0.807526   -1.312485    0.000000
      4          6           0       -0.000000    0.717918    0.000000
      5          1           0       -0.917943    1.294042   -0.000000
      6          6           0        1.197975    1.284506    0.000000
      7          1           0        2.100788    0.683201    0.000000
      8          1           0        1.326717    2.358569    0.000000
 ---------------------------------------------------------------------
 Rotational constants (GHZ):          48.3119741           4.6964412           4.2803457

 **********************************************************************

            Population analysis using the SCF Density.

 **********************************************************************

 Orbital symmetries:
       Occupied  (A') (A') (A') (A') (A') (A') (A') (A') (A') (A')
                 (A') (A") (A') (A") (A')
       Virtual   (A") (A") (A') (A') (A') (A') (A') (A') (A") (A')
                 (A') (A") (A') (A") (A') (A') (A') (A') (A') (A')
                 (A') (A') (A') (A") (A') (A') (A') (A') (A') (A")
                 (A') (A") (A") (A') (A') (A') (A") (A') (A") (A')
                 (A") (A') (A') (A") (A') (A') (A') (A') (A') (A")
                 (A') (A") (A') (A") (A") (A') (A') (A') (A") (A')
                 (A') (A') (A") (A') (A") (A') (A') (A') (A") (A')
                 (A') (A') (A') (A') (A') (A') (A') (A") (A') (A')
                 (A') (A') (A') (A') (A')
 The electronic state is 1-A'.
 Alpha  occ. eigenvalues --  -19.20369 -10.34313 -10.28140 -10.27251  -1.14192
 Alpha  occ. eigenvalues --   -0.89752  -0.73312  -0.65810  -0.56138  -0.55655
 Alpha  occ. eigenvalues --   -0.50083  -0.48226  -0.46683  -0.36441  -0.33451
 Alpha virt. eigenvalues --   -0.02655   0.08409   0.09473   0.10183   0.13839
 Alpha virt. eigenvalues --    0.15800   0.17531   0.20727   0.23692   0.24074
 Alpha virt. eigenvalues --    0.28008   0.29696   0.32027   0.34897   0.36373
 Alpha virt. eigenvalues --    0.37618   0.41650   0.46109   0.47044   0.50131
 Alpha virt. eigenvalues --    0.50855   0.52744   0.56482   0.58399   0.61757
 Alpha virt. eigenvalues --    0.67124   0.71634   0.76022   0.88137   1.22961
 Alpha virt. eigenvalues --    1.24149   1.29802   1.30008   1.30646   1.31861
 Alpha virt. eigenvalues --    1.37240   1.38057   1.39253   1.46031   1.47743
 Alpha virt. eigenvalues --    1.48346   1.52858   1.57071   1.57482   1.70550
 Alpha virt. eigenvalues --    1.74174   1.78985   1.83178   1.86595   1.89725
 Alpha virt. eigenvalues --    1.95953   1.98463   2.00752   2.10680   2.14322
 Alpha virt. eigenvalues --    2.14732   2.26995   2.32300   2.42823   2.46509
 Alpha virt. eigenvalues --    2.48013   2.51904   2.55558   2.64342   2.69334
 Alpha virt. eigenvalues --    2.69595   2.72326   2.76067   2.79103   2.83238
 Alpha virt. eigenvalues --    2.94058   3.02892   3.08666   3.12172   3.20355
 Alpha virt. eigenvalues --    3.26715   3.27441   3.27791   3.58249   3.61269
 Alpha virt. eigenvalues --    4.28553  21.59260  22.03373  22.16073  43.49630
          Condensed to atoms (all electrons):
               1          2          3          4          5          6
     1  O    7.841773   0.604313  -0.060071  -0.125603   0.005073   0.013944
     2  C    0.604313   4.708576   0.452299   0.131328  -0.019105   0.033341
     3  H   -0.060071   0.452299   0.710694  -0.233801   0.005624   0.055051
     4  C   -0.125603   0.131328  -0.233801   5.672302   0.380438   0.318413
     5  H    0.005073  -0.019105   0.005624   0.380438   0.483507  -0.019880
     6  C    0.013944   0.033341   0.055051   0.318413  -0.019880   5.041412
     7  H    0.000391  -0.001464   0.003128  -0.063257   0.003875   0.424668
     8  H   -0.000386   0.003762  -0.000461  -0.019353  -0.005155   0.399512
               7          8
     1  O    0.000391  -0.000386
     2  C   -0.001464   0.003762
     3  H    0.003128  -0.000461
     4  C   -0.063257  -0.019353
     5  H    0.003875  -0.005155
     6  C    0.424668   0.399512
     7  H    0.514444  -0.025035
     8  H   -0.025035   0.504109
 Mulliken charges:
               1
     1  O   -0.279434
     2  C    0.086950
     3  H    0.067536
     4  C   -0.060469
     5  H    0.165623
     6  C   -0.266461
     7  H    0.143248
     8  H    0.143007
 Sum of Mulliken charges =  -0.00000
 Mulliken charges with hydrogens summed into heavy atoms:
               1
     1  O   -0.279434
     2  C    0.154486
     4  C    0.105154
     6  C    0.019794
 Electronic spatial extent (au):  <R**2>=            297.2047
 Charge=             -0.0000 electrons
 Dipole moment (field-independent basis, Debye):
    X=              2.6100    Y=              2.1319    Z=              0.0000  Tot=              3.3700
 Quadrupole moment (field-independent basis, Debye-Ang):
   XX=            -24.9810   YY=            -24.3922   ZZ=            -25.2014
   XY=             -2.9343   XZ=              0.0000   YZ=              0.0000
 Traceless Quadrupole moment (field-independent basis, Debye-Ang):
   XX=             -0.1228   YY=              0.4660   ZZ=             -0.3432
   XY=             -2.9343   XZ=              0.0000   YZ=              0.0000
 Octapole moment (field-independent basis, Debye-Ang**2):
  XXX=              3.4811  YYY=              5.9017  ZZZ=             -0.0000  XYY=              5.3604
  XXY=              4.7804  XXZ=              0.0000  XZZ=             -2.7541  YZZ=             -3.6363
  YYZ=              0.0000  XYZ=              0.0000
 Hexadecapole moment (field-independent basis, Debye-Ang**3):
 XXXX=           -151.5726 YYYY=           -201.7752 ZZZZ=            -27.0685 XXXY=            -61.5259
 XXXZ=              0.0000 YYYX=            -59.1757 YYYZ=             -0.0000 ZZZX=             -0.0000
 ZZZY=             -0.0000 XXYY=            -61.5183 XXZZ=            -31.3179 YYZZ=            -41.4557
 XXYZ=             -0.0000 YYXZ=              0.0000 ZZXY=            -20.0850
 N-N= 1.035211965168D+02 E-N=-6.553003677408D+02  KE= 1.911355060330D+02
 Symmetry A'   KE= 1.852959153440D+02
 Symmetry A"   KE= 5.839590688998D+00
 Unable to Open any file for archive entry.
 1\1\GINC-CX3-2-3\FOpt\RCAM-B3LYP\TZVP\C3H4O1\RK820\11-Feb-2024\0\\# CA
 M-B3LYP/TZVP Opt Freq\\Ground state optimization and frequency calcula
 tion for acrolein, to be followed up by TD-DFT, excited state opt and 
 freq, and FC-HT analysis.\\0,1\O,-3.8501003972,0.698760444,-0.26850758
 99\C,-5.0520752891,0.7609500657,-0.2663358805\H,-5.6684858401,-0.16023
 46793,-0.2985043602\C,-5.8143562833,2.0186571307,-0.2224157827\H,-5.23
 4122286,2.9334506657,-0.1904704889\C,-7.1395523059,2.0139355263,-0.222
 5806648\H,-7.6952836133,1.0829443676,-0.255091592\H,-7.7184084252,2.92
 72228695,-0.1906879685\\Version=ES64L-G16RevC.01\State=1-A'\HF=-191.88
 84138\RMSD=9.749e-09\RMSF=4.546e-05\Dipole=-1.2880164,0.3144044,0.0109
 792\Quadrupole=-1.7062772,1.9587492,-0.252472,1.2010397,0.0419412,0.07
 73118\PG=CS [SG(C3H4O1)]\\@
 The archive entry for this job was punched.


 COLLEGE PROFESSOR: SOMEONE WHO TALKS IN OTHER PEOPLE'S SLEEP.
 Job cpu time:       0 days  0 hours  3 minutes 56.5 seconds.
 Elapsed time:       0 days  0 hours  0 minutes  9.2 seconds.
 File lengths (MBytes):  RWF=     10 Int=      0 D2E=      0 Chk=      2 Scr=      1
 Normal termination of Gaussian 16 at Sun Feb 11 20:48:17 2024.
 Link1:  Proceeding to internal job step number  2.
 --------------------------------------------------------------------
 #N Geom=AllCheck Guess=TCheck SCRF=Check GenChk RCAM-B3LYP/TZVP Freq
 --------------------------------------------------------------------
 1/10=4,29=7,30=1,38=1,40=1/1,3;
 2/12=2,40=1/2;
 3/5=19,7=101,11=2,14=-4,25=1,30=1,70=2,71=2,74=-40,116=1,140=1/1,2,3;
 4/5=101/1;
 5/5=2,38=6,98=1/2;
 8/6=4,10=90,11=11/1;
 11/6=1,8=1,9=11,15=111,16=1/1,2,10;
 10/6=1/2;
 6/7=2,8=2,9=2,10=2,28=1/1;
 7/8=1,10=1,25=1/1,2,3,16;
 1/10=4,30=1/3;
 99//99;
 Structure from the checkpoint file:  "Acrolein_gs.chk"
 ----------------------------------------------------------------------
 Ground state optimization and frequency calculation for acrolein, to b
 e followed up by TD-DFT, excited state opt and freq, and FC-HT analysi
 s.
 ----------------------------------------------------------------------
 Charge =  0 Multiplicity = 1
 Redundant internal coordinates found in file.  (old form).
 O,0,-3.8501003972,0.698760444,-0.2685075899
 C,0,-5.0520752891,0.7609500657,-0.2663358805
 H,0,-5.6684858401,-0.1602346793,-0.2985043602
 C,0,-5.8143562833,2.0186571307,-0.2224157827
 H,0,-5.234122286,2.9334506657,-0.1904704889
 C,0,-7.1395523059,2.0139355263,-0.2225806648
 H,0,-7.6952836133,1.0829443676,-0.255091592
 H,0,-7.7184084252,2.9272228695,-0.1906879685
 Recover connectivity data from disk.

 GradGradGradGradGradGradGradGradGradGradGradGradGradGradGradGradGradGrad
 Berny optimization.
 Initialization pass.
                           ----------------------------
                           !    Initial Parameters    !
                           ! (Angstroms and Degrees)  !
 --------------------------                            --------------------------
 ! Name  Definition              Value          Derivative Info.                !
 --------------------------------------------------------------------------------
 ! R1    R(1,2)                  1.2036         calculate D2E/DX2 analytically  !
 ! R2    R(2,3)                  1.1089         calculate D2E/DX2 analytically  !
 ! R3    R(2,4)                  1.4713         calculate D2E/DX2 analytically  !
 ! R4    R(4,5)                  1.0838         calculate D2E/DX2 analytically  !
 ! R5    R(4,6)                  1.3252         calculate D2E/DX2 analytically  !
 ! R6    R(6,7)                  1.0847         calculate D2E/DX2 analytically  !
 ! R7    R(6,8)                  1.0818         calculate D2E/DX2 analytically  !
 ! A1    A(1,2,3)              120.8087         calculate D2E/DX2 analytically  !
 ! A2    A(1,2,4)              124.1677         calculate D2E/DX2 analytically  !
[...]
 Atom     1 has atomic number  8 and mass  15.99491
 Atom     2 has atomic number  6 and mass  12.00000
 Atom     3 has atomic number  1 and mass   1.00783
 Atom     4 has atomic number  6 and mass  12.00000
 Atom     5 has atomic number  1 and mass   1.00783
 Atom     6 has atomic number  6 and mass  12.00000
 Atom     7 has atomic number  1 and mass   1.00783
 Atom     8 has atomic number  1 and mass   1.00783
 Molecular mass:    56.02621 amu.
 Principal axes and moments of inertia in atomic units:
                           1         2         3
     Eigenvalues --    37.35598 384.27847 421.63445
           X            0.62319   0.78207   0.00000
           Y            0.78207  -0.62319   0.00000
           Z            0.00000   0.00000   1.00000
 This molecule is an asymmetric top.
 Rotational symmetry number  1.
 Rotational temperatures (Kelvin)      2.31861     0.22539     0.20542
 Rotational constants (GHZ):          48.31197     4.69644     4.28035
 Zero-point vibrational energy     162633.0 (Joules/Mol)
                                   38.87021 (Kcal/Mol)
 Warning -- explicit consideration of   4 degrees of freedom as
           vibrations may cause significant error
 Vibrational temperatures:    238.65   471.41   836.83   889.60  1343.14
          (Kelvin)           1466.54  1497.92  1503.60  1705.95  1889.70
                             2026.46  2114.96  2474.13  2626.29  4205.05
                             4545.04  4606.69  4678.55
 
 Zero-point correction=                           0.061944 (Hartree/Particle)
 Thermal correction to Energy=                    0.066288
 Thermal correction to Enthalpy=                  0.067232
 Thermal correction to Gibbs Free Energy=         0.035665
 Sum of electronic and zero-point Energies=           -191.826470
 Sum of electronic and thermal Energies=              -191.822126
 Sum of electronic and thermal Enthalpies=            -191.821182
 Sum of electronic and thermal Free Energies=         -191.852749
 
                     E (Thermal)             CV                S
                      KCal/Mol        Cal/Mol-Kelvin    Cal/Mol-Kelvin
 Total                   41.596             13.607             66.439
 Electronic               0.000              0.000              0.000
 Translational            0.889              2.981             37.991
 Rotational               0.889              2.981             23.319
 Vibrational             39.819              7.646              5.129
 Vibration     1          0.624              1.884              2.482
 Vibration     2          0.711              1.620              1.272
 Vibration     3          0.938              1.071              0.482
 Vibration     4          0.978              0.993              0.419
                       Q            Log10(Q)             Ln(Q)
 Total Bot       0.393818D-16        -16.404705        -37.773228
 Total V=0       0.122281D+13         12.087360         27.832175
 Vib (Bot)       0.857902D-28        -28.066562        -64.625648
 Vib (Bot)    1  0.121656D+01          0.085135          0.196030
 Vib (Bot)    2  0.571085D+00         -0.243299         -0.560217
 Vib (Bot)    3  0.261568D+00         -0.582416         -1.341062
 Vib (Bot)    4  0.236943D+00         -0.625356         -1.439935
 Vib (V=0)       0.266380D+01          0.425502          0.979755
 Vib (V=0)    1  0.181530D+01          0.258949          0.596253
 Vib (V=0)    2  0.125904D+01          0.100039          0.230348
 Vib (V=0)    3  0.106429D+01          0.027058          0.062303
 Vib (V=0)    4  0.105330D+01          0.022553          0.051929
 Electronic      0.100000D+01          0.000000          0.000000
 Translational   0.164832D+08          7.217041         16.617851
 Rotational      0.278495D+05          4.444817         10.234569
 ***** Axes restored to original set *****
 -------------------------------------------------------------------
 Center     Atomic                   Forces (Hartrees/Bohr)
 Number     Number              X              Y              Z
 -------------------------------------------------------------------
      1        8           0.000006277   -0.000021233   -0.000000741
      2        6          -0.000119227   -0.000061357   -0.000002143
      3        1           0.000058922    0.000083933    0.000002931
      4        6           0.000103232    0.000062928    0.000002197
      5        1          -0.000048363   -0.000030375   -0.000001061
      6        6           0.000011059   -0.000045567   -0.000001591
      7        1           0.000007138    0.000010281    0.000000359
      8        1          -0.000019038    0.000001391    0.000000049
 -------------------------------------------------------------------
 Cartesian Forces:  Max     0.000119227 RMS     0.000045464
 FormGI is forming the generalized inverse of G from B-inverse, IUseBI=4.

 GradGradGradGradGradGradGradGradGradGradGradGradGradGradGradGradGradGrad
 Berny optimization.
 Internal  Forces:  Max     0.000102593 RMS     0.000036204
 Search for a local minimum.
 Step number   1 out of a maximum of    2
 All quantities printed in internal units (Hartrees-Bohrs-Radians)
 Second derivative matrix not updated -- analytic derivatives used.
 ITU=  0
     Eigenvalues ---    0.00611   0.02222   0.03131   0.04517   0.07664
     Eigenvalues ---    0.10189   0.10679   0.11580   0.14107   0.16654
     Eigenvalues ---    0.22832   0.30610   0.31539   0.35979   0.36299
     Eigenvalues ---    0.36668   0.64763   0.89059
 Angle between quadratic step and forces=  23.58 degrees.
 Linear search not attempted -- first point.
 Iteration  1 RMS(Cart)=  0.00058844 RMS(Int)=  0.00000014
 Iteration  2 RMS(Cart)=  0.00000016 RMS(Int)=  0.00000000
 ClnCor:  largest displacement from symmetrization is 5.76D-09 for atom     8.
 Variable       Old X    -DE/DX   Delta X   Delta X   Delta X     New X
                                 (Linear)    (Quad)   (Total)
    R1        2.27445   0.00001   0.00000   0.00002   0.00002   2.27447
    R2        2.09545  -0.00010   0.00000  -0.00033  -0.00033   2.09512
    R3        2.78042  -0.00003   0.00000  -0.00008  -0.00008   2.78035
    R4        2.04801  -0.00005   0.00000  -0.00017  -0.00017   2.04784
    R5        2.50427   0.00000   0.00000   0.00004   0.00004   2.50431
    R6        2.04984  -0.00001   0.00000  -0.00003  -0.00003   2.04981
    R7        2.04421   0.00001   0.00000   0.00003   0.00003   2.04425
    A1        2.10851  -0.00002   0.00000  -0.00009  -0.00009   2.10842
    A2        2.16714   0.00003   0.00000   0.00025   0.00025   2.16739
    A3        2.00754  -0.00001   0.00000  -0.00016  -0.00016   2.00738
    A4        2.03201   0.00007   0.00000   0.00062   0.00062   2.03263
    A5        2.11185  -0.00010   0.00000  -0.00067  -0.00067   2.11117
    A6        2.13933   0.00002   0.00000   0.00005   0.00005   2.13938
    A7        2.11225  -0.00001   0.00000  -0.00012  -0.00012   2.11213
    A8        2.13187   0.00002   0.00000   0.00023   0.00023   2.13210
    A9        2.03907  -0.00001   0.00000  -0.00011  -0.00011   2.03895
    D1        0.00000  -0.00000   0.00000  -0.00000   0.00000   0.00000
    D2        3.14159  -0.00000   0.00000  -0.00000   0.00000  -3.14159
    D3        3.14159   0.00000   0.00000   0.00000   0.00000   3.14159
    D4       -0.00000   0.00000   0.00000   0.00000   0.00000   0.00000
    D5       -0.00000   0.00000   0.00000   0.00000   0.00000   0.00000
    D6        3.14159   0.00000   0.00000   0.00000   0.00000   3.14159
    D7        3.14159   0.00000   0.00000   0.00000  -0.00000   3.14159
    D8       -0.00000   0.00000   0.00000   0.00000   0.00000   0.00000
         Item               Value     Threshold  Converged?
 Maximum Force            0.000103     0.000450     YES
 RMS     Force            0.000036     0.000300     YES
 Maximum Displacement     0.001292     0.001800     YES
 RMS     Displacement     0.000588     0.001200     YES
 Predicted change in Energy=-8.754301D-08
 Optimization completed.
    -- Stationary point found.
                           ----------------------------
                           !   Optimized Parameters   !
                           ! (Angstroms and Degrees)  !
 --------------------------                            --------------------------
 ! Name  Definition              Value          Derivative Info.                !
 --------------------------------------------------------------------------------
 ! R1    R(1,2)                  1.2036         -DE/DX =    0.0                 !
 ! R2    R(2,3)                  1.1089         -DE/DX =   -0.0001              !
 ! R3    R(2,4)                  1.4713         -DE/DX =    0.0                 !
 ! R4    R(4,5)                  1.0838         -DE/DX =   -0.0001              !
 ! R5    R(4,6)                  1.3252         -DE/DX =    0.0                 !
 ! R6    R(6,7)                  1.0847         -DE/DX =    0.0                 !
 ! R7    R(6,8)                  1.0818         -DE/DX =    0.0                 !
 ! A1    A(1,2,3)              120.8087         -DE/DX =    0.0                 !
 ! A2    A(1,2,4)              124.1677         -DE/DX =    0.0                 !
 ! A3    A(3,2,4)              115.0236         -DE/DX =    0.0                 !
 ! A4    A(2,4,5)              116.4256         -DE/DX =    0.0001              !
 ! A5    A(2,4,6)              120.9998         -DE/DX =   -0.0001              !
 ! A6    A(5,4,6)              122.5746         -DE/DX =    0.0                 !
 ! A7    A(4,6,7)              121.0229         -DE/DX =    0.0                 !
 ! A8    A(4,6,8)              122.1471         -DE/DX =    0.0                 !
 ! A9    A(7,6,8)              116.83           -DE/DX =    0.0                 !
 ! D1    D(1,2,4,5)              0.0            -DE/DX =    0.0                 !
 ! D2    D(1,2,4,6)           -180.0            -DE/DX =    0.0                 !
 ! D3    D(3,2,4,5)            180.0            -DE/DX =    0.0                 !
 ! D4    D(3,2,4,6)              0.0            -DE/DX =    0.0                 !
 ! D5    D(2,4,6,7)              0.0            -DE/DX =    0.0                 !
 ! D6    D(2,4,6,8)            180.0            -DE/DX =    0.0                 !
 ! D7    D(5,4,6,7)            180.0            -DE/DX =    0.0                 !
 ! D8    D(5,4,6,8)              0.0            -DE/DX =    0.0                 !
 --------------------------------------------------------------------------------
 GradGradGradGradGradGradGradGradGradGradGradGradGradGradGradGradGradGrad


 ----------------------------------------------------------------------

 Electric dipole moment (input orientation):
 (Debye = 10**-18 statcoulomb cm , SI units = C m)
                  (au)            (Debye)         (10**-30 SI)
   Tot        0.132588D+01      0.337005D+01      0.112413D+02
   x         -0.128802D+01     -0.327381D+01     -0.109203D+02
   y          0.314405D+00      0.799137D+00      0.266563D+01
   z          0.109792D-01      0.279065D-01      0.930859D-01

 Dipole polarizability, Alpha (input orientation).
 (esu units = cm**3 , SI units = C**2 m**2 J**-1)
 Alpha(0;0):
               (au)            (10**-24 esu)      (10**-40 SI)
   iso        0.383344D+02      0.568057D+01      0.632049D+01
   aniso      0.330073D+02      0.489118D+01      0.544217D+01
   xx         0.579045D+02      0.858056D+01      0.954716D+01
   yx        -0.555547D+01     -0.823235D+00     -0.915973D+00
   yy         0.352426D+02      0.522242D+01      0.581073D+01
   zx        -0.194001D+00     -0.287480D-01     -0.319865D-01
   zy         0.468039D+00      0.693562D-01      0.771692D-01
   zz         0.218561D+02      0.323874D+01      0.360359D+01

 ----------------------------------------------------------------------

 Dipole orientation:
     8         -0.65723277         -0.29508479          7.37678317
     6         -0.77187778         -0.70402769          9.61122348
     1         -1.30324842         -2.59944605         10.32951149
     6         -0.24051507          1.19136237         11.57486616
     1          0.28330789          3.05985789         10.92012221
     6         -0.40325166          0.61087506         14.00549094
     1         -0.93214042         -1.27569033         14.60798666
     1         -0.02046627          1.97628442         15.47788365

 Electric dipole moment (dipole orientation):
 (Debye = 10**-18 statcoulomb cm , SI units = C m)
                  (au)            (Debye)         (10**-30 SI)
   Tot        0.132588D+01      0.337005D+01      0.112413D+02
   x          0.000000D+00      0.000000D+00      0.000000D+00
   y          0.000000D+00      0.000000D+00      0.000000D+00
   z          0.132588D+01      0.337005D+01      0.112413D+02

 Dipole polarizability, Alpha (dipole orientation).
 (esu units = cm**3 , SI units = C**2 m**2 J**-1)
 Alpha(0;0):
               (au)            (10**-24 esu)      (10**-40 SI)
   iso        0.383344D+02      0.568057D+01      0.632049D+01
   aniso      0.330073D+02      0.489118D+01      0.544217D+01
   xx         0.227237D+02      0.336731D+01      0.374664D+01
   yx         0.315319D+01      0.467255D+00      0.519891D+00
   yy         0.330873D+02      0.490303D+01      0.545536D+01
   zx        -0.774156D-01     -0.114718D-01     -0.127641D-01
   zy        -0.276144D+00     -0.409203D-01     -0.455300D-01
   zz         0.591922D+02      0.877137D+01      0.975947D+01

 ----------------------------------------------------------------------
 Unable to Open any file for archive entry.
 1\1\GINC-CX3-2-3\Freq\RCAM-B3LYP\TZVP\C3H4O1\RK820\11-Feb-2024\0\\#N G
 eom=AllCheck Guess=TCheck SCRF=Check GenChk RCAM-B3LYP/TZVP Freq\\Grou
 nd state optimization and frequency calculation for acrolein, to be fo
 llowed up by TD-DFT, excited state opt and freq, and FC-HT analysis.\\
 0,1\O,-3.8501003972,0.698760444,-0.2685075899\C,-5.0520752891,0.760950
 0657,-0.2663358805\H,-5.6684858401,-0.1602346793,-0.2985043602\C,-5.81
 43562833,2.0186571307,-0.2224157827\H,-5.234122286,2.9334506657,-0.190
 4704889\C,-7.1395523059,2.0139355263,-0.2225806648\H,-7.6952836133,1.0
 829443676,-0.255091592\H,-7.7184084252,2.9272228695,-0.1906879685\\Ver
 sion=ES64L-G16RevC.01\State=1-A'\HF=-191.8884138\RMSD=2.753e-09\RMSF=4
 .546e-05\ZeroPoint=0.0619436\Thermal=0.066288\ETot=-191.8221258\HTot=-
 191.8211816\GTot=-191.8527489\Dipole=-1.2880165,0.3144045,0.0109792\Di
 poleDeriv=-1.2228398,0.1553746,0.0054258,0.1451746,-0.5330627,-0.00575
 68,0.0050696,-0.0057568,-0.3684113,1.3816461,-0.1502113,-0.0052455,-0.
 4767304,0.9273579,0.0240873,-0.0166478,0.0240873,0.2384284,-0.0636292,
 -0.1462804,-0.0051082,-0.0811126,-0.1655188,-0.0081839,-0.0028325,-0.0
 081839,0.068553,-0.3509007,0.2035747,0.007109,0.3970947,-0.217391,-0.0
 020841,0.0138669,-0.0020841,-0.1577839,0.025296,-0.0429901,-0.0015012,
 -0.0188287,-0.0265786,-0.0066336,-0.0006575,-0.0066336,0.1631517,0.122
 8092,-0.034577,-0.0012075,0.0491937,0.068688,0.0109113,0.0017179,0.010
 9113,-0.2433899,0.0589391,-0.0187246,-0.0006539,-0.0756865,-0.0436818,
 -0.00709,-0.002643,-0.00709,0.1591022,0.0486794,0.0338342,0.0011815,0.
 0608952,-0.0098129,-0.0052502,0.0021265,-0.0052502,0.1403497\Polar=57.
 9044762,-5.5554678,35.2426488,-0.1940012,0.4680391,21.8561062\Quadrupo
 le=-1.7062766,1.9587492,-0.2524725,1.2010395,0.0419412,0.0773118\PG=CS
  [SG(C3H4O1)]\NImag=0\\0.87497092,-0.04394847,0.08644757,-0.00153471,0
 .00221383,0.02312914,-0.77360759,0.02431504,0.00084910,0.99598611,0.02
 075305,-0.11227864,-0.00173536,0.01569387,0.57629362,0.00072471,-0.001
 73536,-0.06264497,0.00054804,0.01350363,0.19007185,-0.04776435,-0.0334
 1512,-0.00116688,-0.09841166,-0.08850802,-0.00309077,0.13794098,-0.015
 36078,0.01592873,-0.00011618,-0.07862301,-0.22626973,-0.00581790,0.106
 56967,0.23452408,-0.00053641,-0.00011618,0.01925172,-0.00274558,-0.005
 81790,-0.05987016,0.00372149,0.00738240,0.02337767,-0.06265330,0.05040
 654,0.00176024,-0.09352886,0.03264261,0.00113990,0.00716841,-0.0166184
 5,-0.00058033,0.87926571,0.03031598,0.01214873,-0.00033927,0.02372943,
 -0.22776442,-0.00516950,0.01352587,-0.02196755,-0.00135674,0.07064348,
 0.61634409,0.00105866,-0.00033927,0.02185228,0.00082865,-0.00516950,-0
 .07990997,0.00047233,-0.00135674,0.01683689,0.00246692,0.01738401,0.11
 913821,0.00111748,-0.00292429,-0.00010212,0.01076289,0.01623046,0.0005
 6678,-0.00147483,0.00280528,0.00009796,-0.13554126,-0.12616214,-0.0044
 0568,0.14146035,0.00168913,0.00479795,0.00023169,-0.01915907,-0.020506
 65,-0.00084023,0.00231407,-0.00351381,-0.00020300,-0.12685125,-0.26351
 434,-0.00777108,0.13752231,0.27466086,0.00005899,0.00023169,-0.0018286
 8,-0.00066905,-0.00084023,0.00352505,0.00008081,-0.00020300,0.00229222
 ,-0.00442974,-0.00777108,-0.04125097,0.00480238,0.00864653,0.02735872,
 0.00852772,0.00249907,0.00008727,-0.03778837,0.01095682,0.00038262,0.0
 0206933,-0.00082907,-0.00002895,-0.56895086,-0.01188395,-0.00041500,-0
 .01310359,0.00350759,0.00012249,0.87510702,0.00817208,-0.00728259,-0.0
 0032168,0.03002468,0.01024446,0.00022880,0.00057634,0.00025068,0.00005
 052,-0.00471090,-0.12513157,-0.00251711,-0.02839519,0.00646643,0.00001
 547,-0.01394048,0.65283317,0.00028538,-0.00032168,0.00191797,0.0010484
 8,0.00022880,0.00370046,0.00002013,0.00005052,-0.00119419,-0.00016451,
 -0.00251711,-0.05313892,-0.00099158,0.00001547,0.00602384,-0.00048681,
 0.01844631,0.12524415,0.00116735,0.00098521,0.00003440,-0.00003244,-0.
 00338192,-0.00011810,0.00019122,0.00145874,0.00005094,-0.01330098,-0.0
 3042994,-0.00106264,-0.00433398,0.00135264,0.00004724,-0.12922576,-0.1
 1785524,-0.00411560,0.13495050,-0.00139538,-0.00014655,-0.00006388,0.0
 0422931,0.00040929,0.00035483,-0.00081828,0.00046593,0.00000175,-0.001
 74846,0.00384814,-0.00010051,0.00064540,0.00073118,-0.00037546,-0.1216
 1242,-0.26822865,-0.00796218,0.13411846,0.27804230,-0.00004873,-0.0000
 6388,0.00168059,0.00014769,0.00035483,-0.00973934,-0.00002858,0.000001
 75,0.00041577,-0.00006106,-0.00010051,0.00672286,0.00002254,-0.0003754
 6,0.01146974,-0.00424680,-0.00796218,-0.04049975,0.00468352,0.00882356
 ,0.02567665,-0.00175824,0.00208202,0.00007271,-0.00338009,-0.00438687,
 -0.00015319,0.00028092,0.00059764,0.00002087,-0.01245886,0.03026128,0.
 00105675,0.00111293,-0.00037542,-0.00001311,-0.13663549,0.12612870,0.0
 0440451,0.01058410,-0.01341863,-0.00046859,0.14225473,-0.00022562,0.00
 038479,0.00013086,-0.00021025,-0.00012793,-0.00052428,-0.00024453,0.00
 058167,0.00005914,-0.00376356,0.00603693,-0.00012981,0.00027819,0.0008
 7838,0.00029608,0.13130243,-0.26915195,-0.00794013,0.01375205,-0.01512
 164,-0.00067812,-0.14088872,0.27651975,-0.00000788,0.00013086,-0.00335
 805,-0.00000734,-0.00052428,0.01486709,-0.00000854,0.00005914,-0.00110
 991,-0.00013143,-0.00012981,0.00974962,0.00000971,0.00029608,-0.007589
 91,0.00458518,-0.00794013,-0.04205355,0.00048023,-0.00067812,0.0042734
 9,-0.00491994,0.00878625,0.02522122\\-0.00000628,0.00002123,0.00000074
 ,0.00011923,0.00006136,0.00000214,-0.00005892,-0.00008393,-0.00000293,
 -0.00010323,-0.00006293,-0.00000220,0.00004836,0.00003038,0.00000106,-
 0.00001106,0.00004557,0.00000159,-0.00000714,-0.00001028,-0.00000036,0
 .00001904,-0.00000139,-0.00000005\\\@
 The archive entry for this job was punched.


 OLD HORSE! OLD HORSE! WHAT BROUGHT YOU HERE?
 FROM SACARAP' TO PORTLAND PIER
 I'VE CARTED STONE THIS MANY A YEAR;
 TILL, KILLED BY BLOWS AND SORE ABUSE,
 THEY SALTED ME DOWN FOR SAILORS' USE.
 THE SAILORS THEY DO ME DESPISE;
 THEY TURN ME OVER AND DAMN MY EYES;
 CUT OFF MY MEAT, AND SCRAPE MY BONES,
 AND PITCH ME OVER TO DAVY JONES.

    SAILORS' COMPLAINT ABOUT THE BEEF
    SERVED ON SHIPBOARD, CIRCA 1835.
 Job cpu time:       0 days  0 hours  2 minutes 23.8 seconds.
 Elapsed time:       0 days  0 hours  0 minutes  5.0 seconds.
 File lengths (MBytes):  RWF=     13 Int=      0 D2E=      0 Chk=      2 Scr=      1
 Normal termination of Gaussian 16 at Sun Feb 11 20:48:32 2024.
