 Entering Gaussian System, Link 0=g16
 Input=Acrolein_es.gjf
 Output=Acrolein_es.log
 Initial command:
 /apps/gaussian/g16-c01-avx2/g16/l1.exe "/var/tmp/pbs.8888287.pbs/Gau-501959.inp" -scrdir="/var/tmp/pbs.8888287.pbs/"
 Entering Link 1 = /apps/gaussian/g16-c01-avx2/g16/l1.exe PID=    501960.
  
 Copyright (c) 1988-2019, Gaussian, Inc.  All Rights Reserved.
  
 This is part of the Gaussian(R) 16 program.  It is based on
 the Gaussian(R) 09 system (copyright 2009, Gaussian, Inc.),
 the Gaussian(R) 03 system (copyright 2003, Gaussian, Inc.),
 the Gaussian(R) 98 system (copyright 1998, Gaussian, Inc.),
 the Gaussian(R) 94 system (copyright 1995, Gaussian, Inc.),
 the Gaussian 92(TM) system (copyright 1992, Gaussian, Inc.),
 the Gaussian 90(TM) system (copyright 1990, Gaussian, Inc.),
 the Gaussian 88(TM) system (copyright 1988, Gaussian, Inc.),
 the Gaussian 86(TM) system (copyright 1986, Carnegie Mellon
 University), and the Gaussian 82(TM) system (copyright 1983,
 Carnegie Mellon University). Gaussian is a federally registered
 trademark of Gaussian, Inc.
  
 This software contains proprietary and confidential information,
 including trade secrets, belonging to Gaussian, Inc.
  
 This software is provided under written license and may be
 used, copied, transmitted, or stored only in accord with that
 written license.
  
 The following legend is applicable only to US Government
 contracts under FAR:
  
                    RESTRICTED RIGHTS LEGEND
  
 Use, reproduction and disclosure by the US Government is
 subject to restrictions as set forth in subparagraphs (a)
 and (c) of the Commercial Computer Software - Restricted
 Rights clause in FAR 52.227-19.
  
 Gaussian, Inc.
 340 Quinnipiac St., Bldg. 40, Wallingford CT 06492
  
  
 ---------------------------------------------------------------
 Warning -- This program may not be used in any manner that
 competes with the business of Gaussian, Inc. or will provide
 assistance to any competitor of Gaussian, Inc.  The licensee
 of this program is prohibited from giving any competitor of
 Gaussian, Inc. access to this program.  By using this program,
 the user acknowledges that Gaussian, Inc. is engaged in the
 business of creating and licensing software in the field of
 computational chemistry and represents and warrants to the
 licensee that it is not a competitor of Gaussian, Inc. and that
 it will not use this program in any manner prohibited above.
 ---------------------------------------------------------------
  

 Cite this work as:
 Gaussian 16, Revision C.01,
 M. J. Frisch, G. W. Trucks, H. B. Schlegel, G. E. Scuseria, 
 M. A. Robb, J. R. Cheeseman, G. Scalmani, V. Barone, 
 G. A. Petersson, H. Nakatsuji, X. Li, M. Caricato, A. V. Marenich, 
 J. Bloino, B. G. Janesko, R. Gomperts, B. Mennucci, H. P. Hratchian, 
 J. V. Ortiz, A. F. Izmaylov, J. L. Sonnenberg, D. Williams-Young, 
 F. Ding, F. Lipparini, F. Egidi, J. Goings, B. Peng, A. Petrone, 
 T. Henderson, D. Ranasinghe, V. G. Zakrzewski, J. Gao, N. Rega, 
 G. Zheng, W. Liang, M. Hada, M. Ehara, K. Toyota, R. Fukuda, 
 J. Hasegawa, M. Ishida, T. Nakajima, Y. Honda, O. Kitao, H. Nakai, 
 T. Vreven, K. Throssell, J. A. Montgomery, Jr., J. E. Peralta, 
 F. Ogliaro, M. J. Bearpark, J. J. Heyd, E. N. Brothers, K. N. Kudin, 
 V. N. Staroverov, T. A. Keith, R. Kobayashi, J. Normand, 
 K. Raghavachari, A. P. Rendell, J. C. Burant, S. S. Iyengar, 
 J. Tomasi, M. Cossi, J. M. Millam, M. Klene, C. Adamo, R. Cammi, 
 J. W. Ochterski, R. L. Martin, K. Morokuma, O. Farkas, 
 J. B. Foresman, and D. J. Fox, Gaussian, Inc., Wallingford CT, 2019.
 
 ******************************************
 Gaussian 16:  ES64L-G16RevC.01  3-Jul-2019
                 8-Feb-2024 
 ******************************************
 %oldchk=/rds/general/user/rk820/home/dibs-g16/fc_ht/exercise_8-7/Acrolein_TD.chk
 %chk=/rds/general/user/rk820/home/dibs-g16/fc_ht/exercise_8-7/Acrolein_es.chk
 %NProcShared=32
 Will use up to   32 processors via shared memory.
 %Mem=110GB
 Copying data from "/rds/general/user/rk820/home/dibs-g16/fc_ht/exercise_8-7/Acrolein_TD.chk" to current chk file "/rds/general/user/rk820/home/dibs-g16/fc_ht/exercise_8-7/Acrolein_es.chk"
 IOpt=  2 FromEx=T IUOpen= 4 IOptOp= 5 NList=   0 IFRang= 0 IUIn= 4 IUOut= 2.
 ----------------------------------------------------
 # cam-b3lyp/tzvp Opt Freq=SaveNormalModes geom=check
 ----------------------------------------------------
 1/18=20,19=15,26=3,29=2,38=1/1,3;
 2/9=110,12=2,40=1/2;
 3/5=19,7=101,11=2,14=-4,25=1,30=1,71=1,74=-40/1,2,3;
 4//1;
 5/5=2,38=5/2;
 6/7=2,8=2,9=2,10=2,28=1/1;
 7/92=1/1,2,3,16;
 1/18=20,19=15,26=3/3(2);
 2/9=110/2;
 99//99;
 2/9=110/2;
 3/5=19,7=101,11=2,14=-2,25=1,30=1,71=1,74=-40/1,2,3;
 4/5=5,16=3,69=1/1;
 5/5=2,38=5/2;
 7/92=1/1,2,3,16;
 1/18=20,19=15,26=3/3(-5);
 2/9=110/2;
 6/7=2,8=2,9=2,10=2,19=2,28=1/1;
 99/9=1/99;
 ----------------------------------------------------------------------
 Excited state optimization and frequency calculation, to be followed b
 y FC-HT analysis.
 ----------------------------------------------------------------------
 Structure from the checkpoint file:  "/rds/general/user/rk820/home/dibs-g16/fc_ht/exercise_8-7/Acrolein_es.chk"
 Charge =  0 Multiplicity = 1
 Redundant internal coordinates found in file.  (old form).
 O,0,-3.839649328,0.6964693981,-0.268587595
 C,0,-5.0478350543,0.7595851661,-0.2663835439
 H,0,-5.6660810728,-0.1626257286,-0.2985878575
 C,0,-5.8127131761,2.0167557246,-0.2224821812
 H,0,-5.2338570817,2.9334885295,-0.1904691667
 C,0,-7.1451318388,2.015487204,-0.222526479
 H,0,-7.7045967193,1.0859891016,-0.2549852675
 H,0,-7.7225201689,2.930536995,-0.1905722367
 Recover connectivity data from disk.

 GradGradGradGradGradGradGradGradGradGradGradGradGradGradGradGradGradGrad
 Berny optimization.
 Initialization pass.
                           ----------------------------
                           !    Initial Parameters    !
                           ! (Angstroms and Degrees)  !
 --------------------------                            --------------------------
 ! Name  Definition              Value          Derivative Info.                !
 --------------------------------------------------------------------------------
 ! R1    R(1,2)                  1.2098         estimate D2E/DX2                !
 ! R2    R(2,3)                  1.1107         estimate D2E/DX2                !
 ! R3    R(2,4)                  1.4722         estimate D2E/DX2                !
 ! R4    R(4,5)                  1.0847         estimate D2E/DX2                !
 ! R5    R(4,6)                  1.3324         estimate D2E/DX2                !
 ! R6    R(6,7)                  1.0854         estimate D2E/DX2                !
 ! R7    R(6,8)                  1.0825         estimate D2E/DX2                !
 ! A1    A(1,2,3)              120.8293         estimate D2E/DX2                !
 ! A2    A(1,2,4)              124.2936         estimate D2E/DX2                !
 ! A3    A(3,2,4)              114.8771         estimate D2E/DX2                !
 ! A4    A(2,4,5)              116.4447         estimate D2E/DX2                !
 ! A5    A(2,4,6)              121.2468         estimate D2E/DX2                !
 ! A6    A(5,4,6)              122.3085         estimate D2E/DX2                !
 ! A7    A(4,6,7)              121.0829         estimate D2E/DX2                !
 ! A8    A(4,6,8)              122.1812         estimate D2E/DX2                !
 ! A9    A(7,6,8)              116.7359         estimate D2E/DX2                !
 ! D1    D(1,2,4,5)              0.0            estimate D2E/DX2                !
 ! D2    D(1,2,4,6)            180.0            estimate D2E/DX2                !
 ! D3    D(3,2,4,5)            180.0            estimate D2E/DX2                !
 ! D4    D(3,2,4,6)              0.0            estimate D2E/DX2                !
 ! D5    D(2,4,6,7)              0.0            estimate D2E/DX2                !
 ! D6    D(2,4,6,8)            180.0            estimate D2E/DX2                !
 ! D7    D(5,4,6,7)            180.0            estimate D2E/DX2                !
 ! D8    D(5,4,6,8)              0.0            estimate D2E/DX2                !
 --------------------------------------------------------------------------------
 Trust Radius=3.00D-01 FncErr=1.00D-07 GrdErr=1.00D-06 EigMax=2.50D+02 EigMin=1.00D-04
 Number of steps in this run=     34 maximum allowed number of steps=    100.
 GradGradGradGradGradGradGradGradGradGradGradGradGradGradGradGradGradGrad

                          Input orientation:                          
 ---------------------------------------------------------------------
 Center     Atomic      Atomic             Coordinates (Angstroms)
 Number     Number       Type             X           Y           Z
 ---------------------------------------------------------------------
      1          8           0       -3.839649    0.696469   -0.268588
      2          6           0       -5.047835    0.759585   -0.266384
      3          1           0       -5.666081   -0.162626   -0.298588
      4          6           0       -5.812713    2.016756   -0.222482
      5          1           0       -5.233857    2.933489   -0.190469
      6          6           0       -7.145132    2.015487   -0.222526
      7          1           0       -7.704597    1.085989   -0.254985
      8          1           0       -7.722520    2.930537   -0.190572
 ---------------------------------------------------------------------
                    Distance matrix (angstroms):
                    1          2          3          4          5
     1  O    0.000000
     2  C    1.209835   0.000000
     3  H    2.018613   1.110738   0.000000
     4  C    2.374503   1.472224   2.185634   0.000000
     5  H    2.637076   2.183168   3.128007   1.084665   0.000000
     6  C    3.559234   2.444968   2.633923   1.332419   2.120548
     7  H    3.884550   2.676761   2.390917   2.108698   3.085769
     8  H    4.480383   3.445681   3.715947   2.117399   2.488665
                    6          7          8
     6  C    0.000000
     7  H    1.085367   0.000000
     8  H    1.082458   1.845759   0.000000
 Stoichiometry    C3H4O
 Framework group  CS[SG(C3H4O)]
 Deg. of freedom    13
 Full point group                 CS      NOp   2
 Largest Abelian subgroup         CS      NOp   2
 Largest concise Abelian subgroup C1      NOp   1
                         Standard orientation:                         
 ---------------------------------------------------------------------
 Center     Atomic      Atomic             Coordinates (Angstroms)
 Number     Number       Type             X           Y           Z
 ---------------------------------------------------------------------
      1          8           0       -1.208031   -1.326934   -0.000000
      2          6           0       -0.145884   -0.747671   -0.000000
      3          1           0        0.810530   -1.312480   -0.000000
      4          6           0       -0.000000    0.717307    0.000000
      5          1           0       -0.918526    1.294203    0.000000
      6          6           0        1.202021    1.292186    0.000000
      7          1           0        2.108584    0.695390    0.000000
      8          1           0        1.326836    2.367424    0.000000
 ---------------------------------------------------------------------
 Rotational constants (GHZ):          48.2916735           4.6568086           4.2472432
 Standard basis: TZVP (5D, 7F)
 There are    80 symmetry adapted cartesian basis functions of A'  symmetry.
 There are    24 symmetry adapted cartesian basis functions of A"  symmetry.
 There are    76 symmetry adapted basis functions of A'  symmetry.
 There are    24 symmetry adapted basis functions of A"  symmetry.
   100 basis functions,   172 primitive gaussians,   104 cartesian basis functions
    15 alpha electrons       15 beta electrons
       nuclear repulsion energy       103.1656705328 Hartrees.
 NAtoms=    8 NActive=    8 NUniq=    8 SFac= 1.00D+00 NAtFMM=   60 NAOKFM=F Big=F
 Integral buffers will be    131072 words long.
 Raffenetti 2 integral format.
 Two-electron integral symmetry is turned on.
 One-electron integrals computed using PRISM.
 NBasis=   100 RedAO= T EigKep=  3.72D-04  NBF=    76    24
 NBsUse=   100 1.00D-06 EigRej= -1.00D+00 NBFU=    76    24
 ExpMin= 9.52D-02 ExpMax= 2.70D+04 ExpMxC= 9.22D+02 IAcc=3 IRadAn=         5 AccDes= 0.00D+00
 Harris functional with IExCor=20419 and IRadAn=       5 diagonalized for initial guess.
 HarFok:  IExCor=20419 AccDes= 0.00D+00 IRadAn=         5 IDoV= 1 UseB2=F ITyADJ=14
 ICtDFT=  3500011 ScaDFX=  1.000000  1.000000  1.000000  1.000000
 FoFCou: FMM=F IPFlag=           0 FMFlag=      100000 FMFlg1=           0
         NFxFlg=           0 DoJE=T BraDBF=F KetDBF=T FulRan=T
         wScrn=  0.000000 ICntrl=       500 IOpCl=  0 I1Cent=   200000004 NGrid=           0
         NMat0=    1 NMatS0=      1 NMatT0=    0 NMatD0=    1 NMtDS0=    0 NMtDT0=    0
 Petite list used in FoFCou.
 Initial guess orbital symmetries:
       Occupied  (A') (A') (A') (A') (A') (A') (A') (A') (A') (A')
                 (A') (A') (A") (A") (A')
       Virtual   (A") (A") (A') (A') (A') (A') (A') (A') (A") (A')
                 (A') (A") (A') (A") (A') (A') (A') (A') (A') (A')
                 (A') (A') (A') (A") (A') (A') (A') (A') (A') (A')
                 (A") (A") (A') (A") (A') (A') (A') (A") (A") (A")
                 (A') (A') (A') (A") (A') (A') (A') (A') (A') (A")
                 (A') (A") (A') (A") (A') (A") (A') (A') (A") (A')
                 (A') (A') (A") (A') (A") (A') (A') (A') (A") (A')
                 (A') (A') (A') (A') (A') (A') (A") (A') (A') (A')
                 (A') (A') (A') (A') (A')
 The electronic state of the initial guess is 1-A'.
 Keep R1 ints in memory in symmetry-blocked form, NReq=55822198.
 Requested convergence on RMS density matrix=1.00D-08 within 128 cycles.
 Requested convergence on MAX density matrix=1.00D-06.
 Requested convergence on             energy=1.00D-06.
 No special actions if energy rises.
 Integral accuracy reduced to 1.0D-05 until final iterations.
 Initial convergence to 1.0D-05 achieved.  Increase integral accuracy.
 SCF Done:  E(RCAM-B3LYP) =  -191.888278987     A.U. after   14 cycles
            NFock= 14  Conv=0.27D-08     -V/T= 2.0042

 **********************************************************************

            Population analysis using the SCF Density.

 **********************************************************************

 Orbital symmetries:
       Occupied  (A') (A') (A') (A') (A') (A') (A') (A') (A') (A')
                 (A') (A") (A') (A") (A')
       Virtual   (A") (A") (A') (A') (A') (A') (A') (A') (A") (A')
                 (A') (A") (A') (A") (A') (A') (A') (A') (A') (A')
                 (A') (A') (A') (A") (A') (A') (A') (A') (A') (A")
                 (A') (A") (A") (A') (A') (A') (A") (A') (A") (A')
                 (A") (A') (A') (A") (A') (A') (A') (A') (A') (A")
                 (A') (A") (A') (A") (A") (A') (A') (A') (A") (A')
                 (A') (A') (A") (A') (A') (A") (A') (A') (A") (A')
                 (A') (A') (A') (A') (A') (A') (A") (A') (A') (A')
                 (A') (A') (A') (A') (A')
 The electronic state is 1-A'.
 Alpha  occ. eigenvalues --  -19.20418 -10.34451 -10.28328 -10.27441  -1.13857
 Alpha  occ. eigenvalues --   -0.89626  -0.73407  -0.65772  -0.56043  -0.55616
 Alpha  occ. eigenvalues --   -0.50002  -0.48033  -0.46723  -0.36340  -0.33491
 Alpha virt. eigenvalues --   -0.02867   0.08295   0.09415   0.10168   0.13795
 Alpha virt. eigenvalues --    0.15742   0.17484   0.20723   0.23700   0.23992
 Alpha virt. eigenvalues --    0.27962   0.29725   0.31942   0.34813   0.36278
 Alpha virt. eigenvalues --    0.37549   0.41540   0.46085   0.46989   0.50033
 Alpha virt. eigenvalues --    0.50800   0.52438   0.56142   0.58380   0.61495
 Alpha virt. eigenvalues --    0.66786   0.71445   0.75672   0.88129   1.22979
 Alpha virt. eigenvalues --    1.24443   1.29664   1.29943   1.30573   1.31775
 Alpha virt. eigenvalues --    1.37107   1.38069   1.38935   1.45902   1.47568
 Alpha virt. eigenvalues --    1.48137   1.52734   1.56911   1.57183   1.70334
 Alpha virt. eigenvalues --    1.74215   1.79036   1.83121   1.86532   1.89569
 Alpha virt. eigenvalues --    1.95626   1.98431   2.00465   2.10629   2.14353
 Alpha virt. eigenvalues --    2.14359   2.26501   2.32076   2.42434   2.46371
 Alpha virt. eigenvalues --    2.47630   2.51809   2.54827   2.64036   2.69062
 Alpha virt. eigenvalues --    2.69322   2.72270   2.75872   2.78834   2.82945
 Alpha virt. eigenvalues --    2.93479   3.02823   3.08358   3.11823   3.20184
 Alpha virt. eigenvalues --    3.26308   3.26906   3.27025   3.56865   3.60398
 Alpha virt. eigenvalues --    4.27455  21.59132  22.02133  22.14519  43.49441
          Condensed to atoms (all electrons):
               1          2          3          4          5          6
     1  O    7.845010   0.600787  -0.059310  -0.123339   0.005100   0.013461
     2  C    0.600787   4.711078   0.450841   0.134766  -0.018734   0.032363
     3  H   -0.059310   0.450841   0.708062  -0.230164   0.005678   0.053277
     4  C   -0.123339   0.134766  -0.230164   5.656030   0.379959   0.325415
     5  H    0.005100  -0.018734   0.005678   0.379959   0.483676  -0.020554
     6  C    0.013461   0.032363   0.053277   0.325415  -0.020554   5.039170
     7  H    0.000358  -0.001321   0.002958  -0.061580   0.003822   0.423007
     8  H   -0.000365   0.003687  -0.000411  -0.019422  -0.004951   0.399428
               7          8
     1  O    0.000358  -0.000365
     2  C   -0.001321   0.003687
     3  H    0.002958  -0.000411
     4  C   -0.061580  -0.019422
     5  H    0.003822  -0.004951
     6  C    0.423007   0.399428
     7  H    0.514114  -0.024994
     8  H   -0.024994   0.503338
 Mulliken charges:
               1
     1  O   -0.281701
     2  C    0.086533
     3  H    0.069069
     4  C   -0.061663
     5  H    0.166003
     6  C   -0.265567
     7  H    0.143636
     8  H    0.143691
 Sum of Mulliken charges =  -0.00000
 Mulliken charges with hydrogens summed into heavy atoms:
               1
     1  O   -0.281701
     2  C    0.155602
     4  C    0.104339
     6  C    0.021760
 Electronic spatial extent (au):  <R**2>=            299.0774
 Charge=             -0.0000 electrons
 Dipole moment (field-independent basis, Debye):
    X=              2.6425    Y=              2.1638    Z=              0.0000  Tot=              3.4154
 Quadrupole moment (field-independent basis, Debye-Ang):
   XX=            -24.9771   YY=            -24.4156   ZZ=            -25.2482
   XY=             -2.9407   XZ=              0.0000   YZ=             -0.0000
 Traceless Quadrupole moment (field-independent basis, Debye-Ang):
   XX=             -0.0968   YY=              0.4647   ZZ=             -0.3679
   XY=             -2.9407   XZ=              0.0000   YZ=             -0.0000
 Octapole moment (field-independent basis, Debye-Ang**2):
  XXX=              3.6287  YYY=              6.0965  ZZZ=              0.0000  XYY=              5.4948
  XXY=              4.8698  XXZ=              0.0000  XZZ=             -2.7563  YZZ=             -3.6497
  YYZ=              0.0000  XYZ=              0.0000
 Hexadecapole moment (field-independent basis, Debye-Ang**3):
 XXXX=           -152.2569 YYYY=           -203.3164 ZZZZ=            -27.1791 XXXY=            -62.0575
 XXXZ=             -0.0000 YYYX=            -59.7229 YYYZ=             -0.0000 ZZZX=             -0.0000
 ZZZY=             -0.0000 XXYY=            -61.8806 XXZZ=            -31.5027 YYZZ=            -41.7931
 XXYZ=             -0.0000 YYXZ=             -0.0000 ZZXY=            -20.3045
 N-N= 1.031656705328D+02 E-N=-6.545457515443D+02  KE= 1.910802036577D+02
 Symmetry A'   KE= 1.852477832102D+02
 Symmetry A"   KE= 5.832420447489D+00
 Calling FoFJK, ICntrl=      2127 FMM=F ISym2X=1 I1Cent= 0 IOpClX= 0 NMat=1 NMatS=1 NMatT=0.
 ***** Axes restored to original set *****
 -------------------------------------------------------------------
 Center     Atomic                   Forces (Hartrees/Bohr)
 Number     Number              X              Y              Z
 -------------------------------------------------------------------
      1        8          -0.010459121    0.000915205    0.000031960
      2        6           0.007057832   -0.001139046   -0.000039776
      3        1           0.001323074    0.001057214    0.000036919
      4        6          -0.006240528    0.000554605    0.000019367
      5        1          -0.000349440   -0.000582897   -0.000020355
      6        6           0.007538922   -0.000810614   -0.000028307
      7        1           0.000502743    0.000285823    0.000009981
      8        1           0.000626518   -0.000280289   -0.000009788
 -------------------------------------------------------------------
 Cartesian Forces:  Max     0.010459121 RMS     0.003305468

 GradGradGradGradGradGradGradGradGradGradGradGradGradGradGradGradGradGrad
 Berny optimization.
 FormGI is forming the generalized inverse of G from B-inverse, IUseBI=4.
 Internal  Forces:  Max     0.010492647 RMS     0.002861384
 Search for a local minimum.
 Step number   1 out of a maximum of   34
 All quantities printed in internal units (Hartrees-Bohrs-Radians)
 Mixed Optimization -- RFO/linear search
 Second derivative matrix not updated -- first step.
 ITU=  0
     Eigenvalues ---    0.01133   0.01133   0.02111   0.02983   0.02983
     Eigenvalues ---    0.16000   0.16000   0.16000   0.16000   0.22000
     Eigenvalues ---    0.22000   0.32522   0.35354   0.35437   0.35475
     Eigenvalues ---    0.35699   0.58938   1.00032
 RFO step:  Lambda=-2.79014578D-04 EMin= 1.13336996D-02
 Linear search not attempted -- first point.
 Iteration  1 RMS(Cart)=  0.00790738 RMS(Int)=  0.00000862
 Iteration  2 RMS(Cart)=  0.00000853 RMS(Int)=  0.00000001
 Iteration  3 RMS(Cart)=  0.00000000 RMS(Int)=  0.00000001
 ClnCor:  largest displacement from symmetrization is 1.60D-08 for atom     3.
 Variable       Old X    -DE/DX   Delta X   Delta X   Delta X     New X
                                 (Linear)    (Quad)   (Total)
    R1        2.28626  -0.01049   0.00000  -0.01049  -0.01049   2.27577
    R2        2.09899  -0.00162   0.00000  -0.00496  -0.00496   2.09403
    R3        2.78210  -0.00179   0.00000  -0.00505  -0.00505   2.77705
    R4        2.04972  -0.00068   0.00000  -0.00192  -0.00192   2.04780
    R5        2.51791  -0.00867   0.00000  -0.01470  -0.01470   2.50321
    R6        2.05105  -0.00050   0.00000  -0.00143  -0.00143   2.04962
    R7        2.04555  -0.00057   0.00000  -0.00160  -0.00160   2.04395
    A1        2.10887  -0.00008   0.00000  -0.00126  -0.00126   2.10761
    A2        2.16933  -0.00092   0.00000  -0.00417  -0.00417   2.16516
    A3        2.00498   0.00100   0.00000   0.00543   0.00543   2.01041
    A4        2.03234   0.00060   0.00000   0.00268   0.00268   2.03502
    A5        2.11616  -0.00122   0.00000  -0.00556  -0.00556   2.11060
    A6        2.13469   0.00063   0.00000   0.00288   0.00288   2.13757
    A7        2.11330  -0.00013   0.00000  -0.00080  -0.00080   2.11250
    A8        2.13246  -0.00032   0.00000  -0.00203  -0.00203   2.13044
    A9        2.03743   0.00045   0.00000   0.00283   0.00283   2.04025
    D1       -0.00000   0.00000   0.00000   0.00000   0.00000   0.00000
    D2        3.14159   0.00000   0.00000   0.00000   0.00000   3.14159
    D3        3.14159  -0.00000   0.00000  -0.00000   0.00000   3.14159
    D4        0.00000  -0.00000   0.00000  -0.00000  -0.00000   0.00000
    D5       -0.00000   0.00000   0.00000  -0.00000   0.00000   0.00000
    D6        3.14159  -0.00000   0.00000  -0.00000   0.00000   3.14159
    D7        3.14159   0.00000   0.00000   0.00000   0.00000   3.14159
    D8        0.00000  -0.00000   0.00000  -0.00000   0.00000   0.00000
         Item               Value     Threshold  Converged?
 Maximum Force            0.010493     0.000450     NO 
 RMS     Force            0.002861     0.000300     NO 
 Maximum Displacement     0.022120     0.001800     NO 
 RMS     Displacement     0.007907     0.001200     NO 
 Predicted change in Energy=-1.395760D-04
 GradGradGradGradGradGradGradGradGradGradGradGradGradGradGradGradGradGrad

                          Input orientation:                          
 ---------------------------------------------------------------------
 Center     Atomic      Atomic             Coordinates (Angstroms)
 Number     Number       Type             X           Y           Z
 ---------------------------------------------------------------------
      1          8           0       -3.851355    0.699779   -0.268472
      2          6           0       -5.054078    0.761068   -0.266332
      3          1           0       -5.668527   -0.160522   -0.298514
      4          6           0       -5.813933    2.018160   -0.222433
      5          1           0       -5.235422    2.933912   -0.190454
      6          6           0       -7.138565    2.013369   -0.222600
      7          1           0       -7.694417    1.082586   -0.255104
      8          1           0       -7.716087    2.927335   -0.190684
 ---------------------------------------------------------------------
                    Distance matrix (angstroms):
                    1          2          3          4          5
     1  O    0.000000
     2  C    1.204286   0.000000
     3  H    2.010755   1.108112   0.000000
     4  C    2.364733   1.469553   2.184854   0.000000
     5  H    2.629273   2.181718   3.126464   1.083651   0.000000
     6  C    3.540251   2.432130   2.625372   1.324641   2.114328
     7  H    3.862104   2.659866   2.377274   2.100615   3.078675
     8  H    4.461413   3.432888   3.706614   2.108506   2.480673
                    6          7          8
     6  C    0.000000
     7  H    1.084613   0.000000
     8  H    1.081611   1.846001   0.000000
 Stoichiometry    C3H4O
 Framework group  CS[SG(C3H4O)]
 Deg. of freedom    13
 Full point group                 CS      NOp   2
 Largest Abelian subgroup         CS      NOp   2
 Largest concise Abelian subgroup C1      NOp   1
                         Standard orientation:                         
 ---------------------------------------------------------------------
 Center     Atomic      Atomic             Coordinates (Angstroms)
 Number     Number       Type             X           Y           Z
 ---------------------------------------------------------------------
      1          8           0       -1.204272   -1.318068   -0.000000
      2          6           0       -0.144888   -0.745347   -0.000000
      3          1           0        0.806478   -1.313515   -0.000000
      4          6           0       -0.000000    0.717046    0.000000
      5          1           0       -0.916409    1.295399    0.000000
      6          6           0        1.197880    1.282517    0.000000
      7          1           0        2.100303    0.680838    0.000000
      8          1           0        1.325853    2.356531    0.000000
 ---------------------------------------------------------------------
 Rotational constants (GHZ):          48.2812190           4.7045146           4.2868086
 Standard basis: TZVP (5D, 7F)
 There are    80 symmetry adapted cartesian basis functions of A'  symmetry.
 There are    24 symmetry adapted cartesian basis functions of A"  symmetry.
 There are    76 symmetry adapted basis functions of A'  symmetry.
 There are    24 symmetry adapted basis functions of A"  symmetry.
   100 basis functions,   172 primitive gaussians,   104 cartesian basis functions
    15 alpha electrons       15 beta electrons
       nuclear repulsion energy       103.5662916622 Hartrees.
 NAtoms=    8 NActive=    8 NUniq=    8 SFac= 1.00D+00 NAtFMM=   60 NAOKFM=F Big=F
 Integral buffers will be    131072 words long.
 Raffenetti 2 integral format.
 Two-electron integral symmetry is turned on.
 One-electron integrals computed using PRISM.
 NBasis=   100 RedAO= T EigKep=  3.63D-04  NBF=    76    24
 NBsUse=   100 1.00D-06 EigRej= -1.00D+00 NBFU=    76    24
 Initial guess from the checkpoint file:  "/rds/general/user/rk820/home/dibs-g16/fc_ht/exercise_8-7/Acrolein_es.chk"
 B after Tr=     0.000000    0.000000   -0.000000
         Rot=    1.000000   -0.000000   -0.000000    0.000943 Ang=   0.11 deg.
 Initial guess orbital symmetries:
       Occupied  (A') (A') (A') (A') (A') (A') (A') (A') (A') (A')
                 (A') (A") (A') (A") (A')
       Virtual   (A") (A") (A') (A') (A') (A') (A') (A') (A") (A')
                 (A') (A") (A') (A") (A') (A') (A') (A') (A') (A')
                 (A') (A') (A') (A") (A') (A') (A') (A') (A') (A")
                 (A') (A") (A") (A') (A') (A') (A") (A') (A") (A')
                 (A") (A') (A') (A") (A') (A') (A') (A') (A') (A")
                 (A') (A") (A') (A") (A") (A') (A') (A') (A") (A')
                 (A') (A') (A") (A') (A') (A") (A') (A') (A") (A')
                 (A') (A') (A') (A') (A') (A') (A") (A') (A') (A')
                 (A') (A') (A') (A') (A')
 ExpMin= 9.52D-02 ExpMax= 2.70D+04 ExpMxC= 9.22D+02 IAcc=3 IRadAn=         5 AccDes= 0.00D+00
 Harris functional with IExCor=20419 and IRadAn=       5 diagonalized for initial guess.
 HarFok:  IExCor=20419 AccDes= 0.00D+00 IRadAn=         5 IDoV= 1 UseB2=F ITyADJ=14
 ICtDFT=  3500011 ScaDFX=  1.000000  1.000000  1.000000  1.000000
 FoFCou: FMM=F IPFlag=           0 FMFlag=      100000 FMFlg1=           0
         NFxFlg=           0 DoJE=T BraDBF=F KetDBF=T FulRan=T
         wScrn=  0.000000 ICntrl=       500 IOpCl=  0 I1Cent=   200000004 NGrid=           0
         NMat0=    1 NMatS0=      1 NMatT0=    0 NMatD0=    1 NMtDS0=    0 NMtDT0=    0
 Petite list used in FoFCou.
 Keep R1 ints in memory in symmetry-blocked form, NReq=55822198.
 Requested convergence on RMS density matrix=1.00D-08 within 128 cycles.
 Requested convergence on MAX density matrix=1.00D-06.
 Requested convergence on             energy=1.00D-06.
 No special actions if energy rises.
 Integral accuracy reduced to 1.0D-05 until final iterations.
 Initial convergence to 1.0D-05 achieved.  Increase integral accuracy.
 SCF Done:  E(RCAM-B3LYP) =  -191.888408939     A.U. after   10 cycles
            NFock= 10  Conv=0.66D-08     -V/T= 2.0039
 Calling FoFJK, ICntrl=      2127 FMM=F ISym2X=1 I1Cent= 0 IOpClX= 0 NMat=1 NMatS=1 NMatT=0.
 ***** Axes restored to original set *****
 -------------------------------------------------------------------
 Center     Atomic                   Forces (Hartrees/Bohr)
 Number     Number              X              Y              Z
 -------------------------------------------------------------------
      1        8          -0.000699763   -0.000233465   -0.000008153
      2        6           0.001977667   -0.000165418   -0.000005777
      3        1          -0.000277719   -0.000095368   -0.000003330
      4        6          -0.000240136    0.000495993    0.000017320
      5        1           0.000211960   -0.000153994   -0.000005378
      6        6          -0.000659063    0.000151090    0.000005276
      7        1          -0.000085133   -0.000000263   -0.000000009
      8        1          -0.000227813    0.000001426    0.000000050
 -------------------------------------------------------------------
 Cartesian Forces:  Max     0.001977667 RMS     0.000476885

 GradGradGradGradGradGradGradGradGradGradGradGradGradGradGradGradGradGrad
 Berny optimization.
 Using GEDIIS/GDIIS optimizer.
 FormGI is forming the generalized inverse of G from B-inverse, IUseBI=4.
 Internal  Forces:  Max     0.000971484 RMS     0.000365318
 Search for a local minimum.
 Step number   2 out of a maximum of   34
 All quantities printed in internal units (Hartrees-Bohrs-Radians)
 Mixed Optimization -- En-DIIS/RFO-DIIS
 Update second derivatives using D2CorX and points    1    2
 DE= -1.30D-04 DEPred=-1.40D-04 R= 9.31D-01
 TightC=F SS=  1.41D+00  RLast= 2.22D-02 DXNew= 5.0454D-01 6.6539D-02
 Trust test= 9.31D-01 RLast= 2.22D-02 DXMaxT set to 3.00D-01
 ITU=  1  0
 Use linear search instead of GDIIS.
     Eigenvalues ---    0.01133   0.01133   0.02112   0.02983   0.02983
     Eigenvalues ---    0.15932   0.16000   0.16000   0.16217   0.21946
     Eigenvalues ---    0.22720   0.32632   0.35324   0.35398   0.35679
     Eigenvalues ---    0.36583   0.63673   0.92815
 RFO step:  Lambda=-6.43987524D-06 EMin= 1.13336996D-02
 Quartic linear search produced a step of -0.06867.
 Iteration  1 RMS(Cart)=  0.00135208 RMS(Int)=  0.00000072
 Iteration  2 RMS(Cart)=  0.00000088 RMS(Int)=  0.00000001
 ClnCor:  largest displacement from symmetrization is 1.77D-08 for atom     8.
 Variable       Old X    -DE/DX   Delta X   Delta X   Delta X     New X
                                 (Linear)    (Quad)   (Total)
    R1        2.27577  -0.00069   0.00072  -0.00161  -0.00089   2.27488
    R2        2.09403   0.00023   0.00034   0.00020   0.00054   2.09457
    R3        2.77705   0.00094   0.00035   0.00199   0.00234   2.77939
    R4        2.04780  -0.00002   0.00013  -0.00023  -0.00009   2.04771
    R5        2.50321   0.00097   0.00101   0.00017   0.00118   2.50438
    R6        2.04962   0.00004   0.00010  -0.00002   0.00008   2.04970
    R7        2.04395   0.00012   0.00011   0.00017   0.00028   2.04423
    A1        2.10761  -0.00008   0.00009  -0.00016  -0.00008   2.10754
    A2        2.16516   0.00053   0.00029   0.00186   0.00214   2.16730
    A3        2.01041  -0.00045  -0.00037  -0.00169  -0.00206   2.00835
    A4        2.03502  -0.00041  -0.00018  -0.00189  -0.00207   2.03295
    A5        2.11060   0.00028   0.00038   0.00064   0.00102   2.11162
    A6        2.13757   0.00013  -0.00020   0.00125   0.00105   2.13862
    A7        2.11250  -0.00003   0.00005  -0.00026  -0.00020   2.11229
    A8        2.13044   0.00021   0.00014   0.00104   0.00118   2.13161
    A9        2.04025  -0.00018  -0.00019  -0.00078  -0.00097   2.03928
    D1       -0.00000   0.00000   0.00000   0.00000   0.00000   0.00000
    D2        3.14159   0.00000   0.00000  -0.00000   0.00000   3.14159
    D3       -3.14159  -0.00000  -0.00000   0.00000  -0.00000   3.14159
    D4        0.00000  -0.00000   0.00000  -0.00000  -0.00000   0.00000
    D5       -0.00000  -0.00000  -0.00000   0.00000   0.00000   0.00000
    D6        3.14159  -0.00000   0.00000   0.00000   0.00000   3.14159
    D7        3.14159   0.00000   0.00000   0.00000   0.00000   3.14159
    D8       -0.00000   0.00000   0.00000  -0.00000   0.00000   0.00000
         Item               Value     Threshold  Converged?
 Maximum Force            0.000971     0.000450     NO 
 RMS     Force            0.000365     0.000300     NO 
 Maximum Displacement     0.003609     0.001800     NO 
 RMS     Displacement     0.001352     0.001200     NO 
 Predicted change in Energy=-3.967556D-06
 GradGradGradGradGradGradGradGradGradGradGradGradGradGradGradGradGradGrad

                          Input orientation:                          
 ---------------------------------------------------------------------
 Center     Atomic      Atomic             Coordinates (Angstroms)
 Number     Number       Type             X           Y           Z
 ---------------------------------------------------------------------
      1          8           0       -3.850328    0.698345   -0.268522
      2          6           0       -5.052505    0.761078   -0.266331
      3          1           0       -5.668167   -0.160048   -0.298498
      4          6           0       -5.814159    2.018529   -0.222420
      5          1           0       -5.234620    2.933572   -0.190466
      6          6           0       -7.139415    2.013872   -0.222583
      7          1           0       -7.695194    1.082996   -0.255090
      8          1           0       -7.717997    2.927342   -0.190684
 ---------------------------------------------------------------------
                    Distance matrix (angstroms):
                    1          2          3          4          5
     1  O    0.000000
     2  C    1.203815   0.000000
     3  H    2.010541   1.108398   0.000000
     4  C    2.366780   1.470792   2.184788   0.000000
     5  H    2.630324   2.181434   3.125719   1.083601   0.000000
     6  C    3.542713   2.434460   2.626073   1.325263   2.115449
     7  H    3.864082   2.662247   2.378210   2.101090   3.079485
     8  H    4.464678   3.435589   3.707480   2.109869   2.483384
                    6          7          8
     6  C    0.000000
     7  H    1.084655   0.000000
     8  H    1.081759   1.845611   0.000000
 Stoichiometry    C3H4O
 Framework group  CS[SG(C3H4O)]
 Deg. of freedom    13
 Full point group                 CS      NOp   2
 Largest Abelian subgroup         CS      NOp   2
 Largest concise Abelian subgroup C1      NOp   1
                         Standard orientation:                         
 ---------------------------------------------------------------------
 Center     Atomic      Atomic             Coordinates (Angstroms)
 Number     Number       Type             X           Y           Z
 ---------------------------------------------------------------------
      1          8           0       -1.203901   -1.319927   -0.000000
      2          6           0       -0.145836   -0.745759   -0.000000
      3          1           0        0.806627   -1.312646   -0.000000
      4          6           0       -0.000000    0.717785    0.000000
      5          1           0       -0.917239    1.294729    0.000000
      6          6           0        1.198183    1.284072    0.000000
      7          1           0        2.100795    0.682601    0.000000
      8          1           0        1.326943    2.358141    0.000000
 ---------------------------------------------------------------------
 Rotational constants (GHZ):          48.3234985           4.6972739           4.2811279
 Standard basis: TZVP (5D, 7F)
 There are    80 symmetry adapted cartesian basis functions of A'  symmetry.
 There are    24 symmetry adapted cartesian basis functions of A"  symmetry.
 There are    76 symmetry adapted basis functions of A'  symmetry.
 There are    24 symmetry adapted basis functions of A"  symmetry.
   100 basis functions,   172 primitive gaussians,   104 cartesian basis functions
    15 alpha electrons       15 beta electrons
       nuclear repulsion energy       103.5280072901 Hartrees.
 NAtoms=    8 NActive=    8 NUniq=    8 SFac= 1.00D+00 NAtFMM=   60 NAOKFM=F Big=F
 Integral buffers will be    131072 words long.
 Raffenetti 2 integral format.
 Two-electron integral symmetry is turned on.
 One-electron integrals computed using PRISM.
 NBasis=   100 RedAO= T EigKep=  3.63D-04  NBF=    76    24
 NBsUse=   100 1.00D-06 EigRej= -1.00D+00 NBFU=    76    24
 Initial guess from the checkpoint file:  "/rds/general/user/rk820/home/dibs-g16/fc_ht/exercise_8-7/Acrolein_es.chk"
 B after Tr=     0.000000   -0.000000    0.000000
         Rot=    1.000000   -0.000000   -0.000000   -0.000239 Ang=  -0.03 deg.
 Initial guess orbital symmetries:
       Occupied  (A') (A') (A') (A') (A') (A') (A') (A') (A') (A')
                 (A') (A") (A') (A") (A')
       Virtual   (A") (A") (A') (A') (A') (A') (A') (A') (A") (A')
                 (A') (A") (A') (A") (A') (A') (A') (A') (A') (A')
                 (A') (A') (A') (A") (A') (A') (A') (A') (A') (A")
                 (A') (A") (A") (A') (A') (A') (A") (A') (A") (A')
                 (A") (A') (A') (A") (A') (A') (A') (A') (A') (A")
                 (A') (A") (A') (A") (A") (A') (A') (A') (A") (A')
                 (A') (A') (A") (A') (A") (A') (A') (A') (A") (A')
                 (A') (A') (A') (A') (A') (A') (A') (A") (A') (A')
                 (A') (A') (A') (A') (A')
 Keep R1 ints in memory in symmetry-blocked form, NReq=55822198.
 Requested convergence on RMS density matrix=1.00D-08 within 128 cycles.
 Requested convergence on MAX density matrix=1.00D-06.
 Requested convergence on             energy=1.00D-06.
 No special actions if energy rises.
 SCF Done:  E(RCAM-B3LYP) =  -191.888413481     A.U. after    8 cycles
            NFock=  8  Conv=0.67D-08     -V/T= 2.0039
 Calling FoFJK, ICntrl=      2127 FMM=F ISym2X=1 I1Cent= 0 IOpClX= 0 NMat=1 NMatS=1 NMatT=0.
 ***** Axes restored to original set *****
 -------------------------------------------------------------------
 Center     Atomic                   Forces (Hartrees/Bohr)
 Number     Number              X              Y              Z
 -------------------------------------------------------------------
      1        8          -0.000219893    0.000066314    0.000002316
      2        6           0.000530705   -0.000179326   -0.000006262
      3        1          -0.000169180   -0.000062967   -0.000002199
      4        6          -0.000214036    0.000193118    0.000006744
      5        1           0.000075371    0.000012297    0.000000429
      6        6           0.000058964    0.000008366    0.000000292
      7        1          -0.000026300   -0.000021703   -0.000000758
      8        1          -0.000035631   -0.000016099   -0.000000562
 -------------------------------------------------------------------
 Cartesian Forces:  Max     0.000530705 RMS     0.000143529

 GradGradGradGradGradGradGradGradGradGradGradGradGradGradGradGradGradGrad
 Berny optimization.
 Using GEDIIS/GDIIS optimizer.
 FormGI is forming the generalized inverse of G from B-inverse, IUseBI=4.
 Internal  Forces:  Max     0.000223953 RMS     0.000082442
 Search for a local minimum.
 Step number   3 out of a maximum of   34
 All quantities printed in internal units (Hartrees-Bohrs-Radians)
 Mixed Optimization -- En-DIIS/RFO-DIIS
 Swapping is turned off.
 Update second derivatives using D2CorX and points    1    2    3
 DE= -4.54D-06 DEPred=-3.97D-06 R= 1.14D+00
 TightC=F SS=  1.41D+00  RLast= 5.07D-03 DXNew= 5.0454D-01 1.5214D-02
 Trust test= 1.14D+00 RLast= 5.07D-03 DXMaxT set to 3.00D-01
 ITU=  1  1  0
     Eigenvalues ---    0.01133   0.01133   0.02113   0.02983   0.02983
     Eigenvalues ---    0.14026   0.16000   0.16002   0.16143   0.21819
     Eigenvalues ---    0.24595   0.31401   0.33745   0.35359   0.35529
     Eigenvalues ---    0.35787   0.65269   0.89748
 En-DIIS/RFO-DIIS/Sim-DIIS IScMMF=       -3 using points:     3    2
 RFO step:  Lambda=-6.63303402D-07.
 DidBck=F Rises=F RFO-DIIS coefs:    1.25289   -0.25289
 Iteration  1 RMS(Cart)=  0.00047776 RMS(Int)=  0.00000020
 Iteration  2 RMS(Cart)=  0.00000021 RMS(Int)=  0.00000000
 ClnCor:  largest displacement from symmetrization is 2.73D-08 for atom     8.
 Variable       Old X    -DE/DX   Delta X   Delta X   Delta X     New X
                                 (Linear)    (Quad)   (Total)
    R1        2.27488  -0.00022  -0.00023  -0.00016  -0.00039   2.27449
    R2        2.09457   0.00015   0.00014   0.00040   0.00053   2.09510
    R3        2.77939   0.00022   0.00059   0.00026   0.00086   2.78025
    R4        2.04771   0.00005  -0.00002   0.00018   0.00015   2.04786
    R5        2.50438   0.00000   0.00030  -0.00032  -0.00002   2.50436
    R6        2.04970   0.00003   0.00002   0.00008   0.00010   2.04980
    R7        2.04423   0.00001   0.00007  -0.00005   0.00002   2.04425
    A1        2.10754   0.00012  -0.00002   0.00085   0.00084   2.10837
    A2        2.16730  -0.00001   0.00054  -0.00050   0.00005   2.16735
    A3        2.00835  -0.00011  -0.00052  -0.00036  -0.00088   2.00747
    A4        2.03295  -0.00003  -0.00052   0.00012  -0.00041   2.03254
    A5        2.11162  -0.00005   0.00026  -0.00050  -0.00024   2.11138
    A6        2.13862   0.00008   0.00027   0.00038   0.00065   2.13926
    A7        2.11229  -0.00001  -0.00005  -0.00005  -0.00010   2.11219
    A8        2.13161   0.00005   0.00030   0.00009   0.00039   2.13200
    A9        2.03928  -0.00003  -0.00025  -0.00005  -0.00029   2.03899
    D1       -0.00000   0.00000   0.00000   0.00000   0.00000   0.00000
    D2        3.14159   0.00000   0.00000  -0.00000   0.00000   3.14159
    D3        3.14159  -0.00000  -0.00000   0.00000   0.00000  -3.14159
    D4        0.00000  -0.00000   0.00000  -0.00000   0.00000   0.00000
    D5       -0.00000   0.00000  -0.00000   0.00000   0.00000   0.00000
    D6        3.14159  -0.00000  -0.00000   0.00000   0.00000   3.14159
    D7        3.14159  -0.00000   0.00000   0.00000   0.00000   3.14159
    D8        0.00000  -0.00000   0.00000  -0.00000  -0.00000   0.00000
         Item               Value     Threshold  Converged?
 Maximum Force            0.000224     0.000450     YES
 RMS     Force            0.000082     0.000300     YES
 Maximum Displacement     0.001345     0.001800     YES
 RMS     Displacement     0.000478     0.001200     YES
 Predicted change in Energy=-3.316527D-07
 Optimization completed.
    -- Stationary point found.
                           ----------------------------
                           !   Optimized Parameters   !
                           ! (Angstroms and Degrees)  !
 --------------------------                            --------------------------
 ! Name  Definition              Value          Derivative Info.                !
 --------------------------------------------------------------------------------
 ! R1    R(1,2)                  1.2038         -DE/DX =   -0.0002              !
 ! R2    R(2,3)                  1.1084         -DE/DX =    0.0001              !
 ! R3    R(2,4)                  1.4708         -DE/DX =    0.0002              !
 ! R4    R(4,5)                  1.0836         -DE/DX =    0.0001              !
 ! R5    R(4,6)                  1.3253         -DE/DX =    0.0                 !
 ! R6    R(6,7)                  1.0847         -DE/DX =    0.0                 !
 ! R7    R(6,8)                  1.0818         -DE/DX =    0.0                 !
 ! A1    A(1,2,3)              120.7529         -DE/DX =    0.0001              !
 ! A2    A(1,2,4)              124.1773         -DE/DX =    0.0                 !
 ! A3    A(3,2,4)              115.0698         -DE/DX =   -0.0001              !
 ! A4    A(2,4,5)              116.4794         -DE/DX =    0.0                 !
 ! A5    A(2,4,6)              120.9869         -DE/DX =    0.0                 !
 ! A6    A(5,4,6)              122.5336         -DE/DX =    0.0001              !
 ! A7    A(4,6,7)              121.0254         -DE/DX =    0.0                 !
 ! A8    A(4,6,8)              122.1325         -DE/DX =    0.0                 !
 ! A9    A(7,6,8)              116.8421         -DE/DX =    0.0                 !
 ! D1    D(1,2,4,5)              0.0            -DE/DX =    0.0                 !
 ! D2    D(1,2,4,6)            180.0            -DE/DX =    0.0                 !
 ! D3    D(3,2,4,5)           -180.0            -DE/DX =    0.0                 !
 ! D4    D(3,2,4,6)              0.0            -DE/DX =    0.0                 !
 ! D5    D(2,4,6,7)              0.0            -DE/DX =    0.0                 !
 ! D6    D(2,4,6,8)            180.0            -DE/DX =    0.0                 !
 ! D7    D(5,4,6,7)            180.0            -DE/DX =    0.0                 !
 ! D8    D(5,4,6,8)              0.0            -DE/DX =    0.0                 !
 --------------------------------------------------------------------------------
 GradGradGradGradGradGradGradGradGradGradGradGradGradGradGradGradGradGrad

                          Input orientation:                          
 ---------------------------------------------------------------------
 Center     Atomic      Atomic             Coordinates (Angstroms)
 Number     Number       Type             X           Y           Z
 ---------------------------------------------------------------------
      1          8           0       -3.850328    0.698345   -0.268522
      2          6           0       -5.052505    0.761078   -0.266331
      3          1           0       -5.668167   -0.160048   -0.298498
      4          6           0       -5.814159    2.018529   -0.222420
      5          1           0       -5.234620    2.933572   -0.190466
      6          6           0       -7.139415    2.013872   -0.222583
      7          1           0       -7.695194    1.082996   -0.255090
      8          1           0       -7.717997    2.927342   -0.190684
 ---------------------------------------------------------------------
                    Distance matrix (angstroms):
                    1          2          3          4          5
     1  O    0.000000
     2  C    1.203815   0.000000
     3  H    2.010541   1.108398   0.000000
     4  C    2.366780   1.470792   2.184788   0.000000
     5  H    2.630324   2.181434   3.125719   1.083601   0.000000
     6  C    3.542713   2.434460   2.626073   1.325263   2.115449
     7  H    3.864082   2.662247   2.378210   2.101090   3.079485
     8  H    4.464678   3.435589   3.707480   2.109869   2.483384
                    6          7          8
     6  C    0.000000
     7  H    1.084655   0.000000
     8  H    1.081759   1.845611   0.000000
 Stoichiometry    C3H4O
 Framework group  CS[SG(C3H4O)]
 Deg. of freedom    13
 Full point group                 CS      NOp   2
 Largest Abelian subgroup         CS      NOp   2
 Largest concise Abelian subgroup C1      NOp   1
                         Standard orientation:                         
 ---------------------------------------------------------------------
 Center     Atomic      Atomic             Coordinates (Angstroms)
 Number     Number       Type             X           Y           Z
 ---------------------------------------------------------------------
      1          8           0       -1.203901   -1.319927   -0.000000
      2          6           0       -0.145836   -0.745759   -0.000000
      3          1           0        0.806627   -1.312646   -0.000000
      4          6           0       -0.000000    0.717785    0.000000
      5          1           0       -0.917239    1.294729    0.000000
      6          6           0        1.198183    1.284072    0.000000
      7          1           0        2.100795    0.682601    0.000000
      8          1           0        1.326943    2.358141    0.000000
 ---------------------------------------------------------------------
 Rotational constants (GHZ):          48.3234985           4.6972739           4.2811279

 **********************************************************************

            Population analysis using the SCF Density.

 **********************************************************************

 Orbital symmetries:
       Occupied  (A') (A') (A') (A') (A') (A') (A') (A') (A') (A')
                 (A') (A") (A') (A") (A')
       Virtual   (A") (A") (A') (A') (A') (A') (A') (A') (A") (A')
                 (A') (A") (A') (A") (A') (A') (A') (A') (A') (A')
                 (A') (A') (A') (A") (A') (A') (A') (A') (A') (A")
                 (A') (A") (A") (A') (A') (A') (A") (A') (A") (A')
                 (A") (A') (A') (A") (A') (A') (A') (A') (A') (A")
                 (A') (A") (A') (A") (A") (A') (A') (A') (A") (A')
                 (A') (A') (A") (A') (A") (A') (A') (A') (A") (A')
                 (A') (A') (A') (A') (A') (A') (A') (A") (A') (A')
                 (A') (A') (A') (A') (A')
 The electronic state is 1-A'.
 Alpha  occ. eigenvalues --  -19.20361 -10.34305 -10.28144 -10.27250  -1.14175
 Alpha  occ. eigenvalues --   -0.89760  -0.73319  -0.65819  -0.56146  -0.55654
 Alpha  occ. eigenvalues --   -0.50072  -0.48219  -0.46690  -0.36439  -0.33450
 Alpha virt. eigenvalues --   -0.02661   0.08411   0.09475   0.10180   0.13840
 Alpha virt. eigenvalues --    0.15801   0.17535   0.20728   0.23691   0.24075
 Alpha virt. eigenvalues --    0.28009   0.29697   0.32026   0.34895   0.36382
 Alpha virt. eigenvalues --    0.37621   0.41658   0.46115   0.47052   0.50143
 Alpha virt. eigenvalues --    0.50852   0.52740   0.56499   0.58403   0.61753
 Alpha virt. eigenvalues --    0.67137   0.71642   0.76008   0.88141   1.22954
 Alpha virt. eigenvalues --    1.24145   1.29803   1.30000   1.30629   1.31850
 Alpha virt. eigenvalues --    1.37236   1.38074   1.39244   1.46034   1.47748
 Alpha virt. eigenvalues --    1.48340   1.52853   1.57064   1.57477   1.70558
 Alpha virt. eigenvalues --    1.74185   1.78989   1.83193   1.86596   1.89725
 Alpha virt. eigenvalues --    1.95988   1.98454   2.00804   2.10710   2.14362
 Alpha virt. eigenvalues --    2.14756   2.26987   2.32312   2.42854   2.46504
 Alpha virt. eigenvalues --    2.48032   2.51912   2.55543   2.64366   2.69341
 Alpha virt. eigenvalues --    2.69601   2.72348   2.76080   2.79116   2.83240
 Alpha virt. eigenvalues --    2.94046   3.02913   3.08683   3.12199   3.20354
 Alpha virt. eigenvalues --    3.26751   3.27483   3.27766   3.58283   3.61228
 Alpha virt. eigenvalues --    4.28535  21.59272  22.03398  22.16082  43.49643
          Condensed to atoms (all electrons):
               1          2          3          4          5          6
     1  O    7.842073   0.604331  -0.060144  -0.125648   0.005038   0.013939
     2  C    0.604331   4.709160   0.452664   0.130377  -0.019026   0.033633
     3  H   -0.060144   0.452664   0.710459  -0.233997   0.005608   0.055076
     4  C   -0.125648   0.130377  -0.233997   5.673514   0.380571   0.317922
     5  H    0.005038  -0.019026   0.005608   0.380571   0.483409  -0.019988
     6  C    0.013939   0.033633   0.055076   0.317922  -0.019988   5.041707
     7  H    0.000391  -0.001461   0.003095  -0.063176   0.003871   0.424630
     8  H   -0.000386   0.003764  -0.000457  -0.019393  -0.005151   0.399528
               7          8
     1  O    0.000391  -0.000386
     2  C   -0.001461   0.003764
     3  H    0.003095  -0.000457
     4  C   -0.063176  -0.019393
     5  H    0.003871  -0.005151
     6  C    0.424630   0.399528
     7  H    0.514369  -0.025018
     8  H   -0.025018   0.504118
 Mulliken charges:
               1
     1  O   -0.279594
     2  C    0.086558
     3  H    0.067695
     4  C   -0.060171
     5  H    0.165666
     6  C   -0.266448
     7  H    0.143300
     8  H    0.142995
 Sum of Mulliken charges =  -0.00000
 Mulliken charges with hydrogens summed into heavy atoms:
               1
     1  O   -0.279594
     2  C    0.154253
     4  C    0.105495
     6  C    0.019847
 Electronic spatial extent (au):  <R**2>=            297.1605
 Charge=             -0.0000 electrons
 Dipole moment (field-independent basis, Debye):
    X=              2.6124    Y=              2.1339    Z=              0.0000  Tot=              3.3731
 Quadrupole moment (field-independent basis, Debye-Ang):
   XX=            -24.9833   YY=            -24.3897   ZZ=            -25.2005
   XY=             -2.9372   XZ=             -0.0000   YZ=             -0.0000
 Traceless Quadrupole moment (field-independent basis, Debye-Ang):
   XX=             -0.1255   YY=              0.4681   ZZ=             -0.3427
   XY=             -2.9372   XZ=             -0.0000   YZ=             -0.0000
 Octapole moment (field-independent basis, Debye-Ang**2):
  XXX=              3.4901  YYY=              5.9053  ZZZ=              0.0000  XYY=              5.3615
  XXY=              4.7819  XXZ=              0.0000  XZZ=             -2.7526  YZZ=             -3.6338
  YYZ=              0.0000  XYZ=              0.0000
 Hexadecapole moment (field-independent basis, Debye-Ang**3):
 XXXX=           -151.5972 YYYY=           -201.6874 ZZZZ=            -27.0669 XXXY=            -61.5293
 XXXZ=             -0.0000 YYYX=            -59.1865 YYYZ=             -0.0000 ZZZX=             -0.0000
 ZZZY=             -0.0000 XXYY=            -61.5098 XXZZ=            -31.3201 YYZZ=            -41.4405
 XXYZ=             -0.0000 YYXZ=             -0.0000 ZZXY=            -20.0850
 N-N= 1.035280072901D+02 E-N=-6.553150916619D+02  KE= 1.911364961900D+02
 Symmetry A'   KE= 1.852972114224D+02
 Symmetry A"   KE= 5.839284767608D+00
 Unable to Open any file for archive entry.
 1\1\GINC-CX3-7-2\FOpt\RCAM-B3LYP\TZVP\C3H4O1\RK820\08-Feb-2024\0\\# ca
 m-b3lyp/tzvp Opt Freq=SaveNormalModes geom=check\\Excited state optimi
 zation and frequency calculation, to be followed by FC-HT analysis.\\0
 ,1\O,-3.8503277495,0.6983446832,-0.2685221086\C,-5.0525050273,0.761077
 9325,-0.2663314153\H,-5.668166964,-0.1600479226,-0.2984978385\C,-5.814
 1594943,2.0185287583,-0.2224202655\H,-5.2346202406,2.9335724848,-0.190
 4662349\C,-7.1394145655,2.0138717259,-0.2225828927\H,-7.6951937847,1.0
 829963066,-0.2550897782\H,-7.717996614,2.9273424216,-0.1906837936\\Ver
 sion=ES64L-G16RevC.01\State=1-A'\HF=-191.8884135\RMSD=6.732e-09\RMSF=1
 .435e-04\Dipole=-1.2890843,0.3151184,0.0110042\Quadrupole=-1.7084714,1
 .960533,-0.2520616,1.2021772,0.041981,0.0773598\PG=CS [SG(C3H4O1)]\\@
 The archive entry for this job was punched.


 NOTHING WILL BE ATTEMPTED IF ALL POSSIBLE OBJECTIONS
 MUST FIRST BE OVERCOME.

                               -- THE GOLDEN PRINCIPLE,
                    PAUL DICKSON'S "THE OFFICIAL RULES"
 Job cpu time:       0 days  0 hours  2 minutes 35.6 seconds.
 Elapsed time:       0 days  0 hours  0 minutes  6.1 seconds.
 File lengths (MBytes):  RWF=     10 Int=      0 D2E=      0 Chk=     16 Scr=      1
 Normal termination of Gaussian 16 at Thu Feb  8 12:29:37 2024.
 Link1:  Proceeding to internal job step number  2.
 --------------------------------------------------------------------
 #N Geom=AllCheck Guess=TCheck SCRF=Check GenChk RCAM-B3LYP/TZVP Freq
 --------------------------------------------------------------------
 1/10=4,29=7,30=1,38=1,40=1/1,3;
 2/12=2,40=1/2;
 3/5=19,7=101,11=2,14=-4,25=1,30=1,70=2,71=2,74=-40,116=1,140=1/1,2,3;
 4/5=101/1;
 5/5=2,38=6,98=1/2;
 8/6=4,10=90,11=11/1;
 11/6=1,8=1,9=11,15=111,16=1/1,2,10;
 10/6=1/2;
 6/7=2,8=2,9=2,10=2,28=1/1;
 7/8=1,10=1,25=1,92=1/1,2,3,16;
 1/10=4,30=1/3;
 99//99;
 Structure from the checkpoint file:  "/rds/general/user/rk820/home/dibs-g16/fc_ht/exercise_8-7/Acrolein_es.chk"
 ----------------------------------------------------------------------
 Excited state optimization and frequency calculation, to be followed b
 y FC-HT analysis.
 ----------------------------------------------------------------------
 Charge =  0 Multiplicity = 1
 Redundant internal coordinates found in file.  (old form).
 O,0,-3.8503277495,0.6983446832,-0.2685221086
 C,0,-5.0525050273,0.7610779325,-0.2663314153
 H,0,-5.668166964,-0.1600479226,-0.2984978385
 C,0,-5.8141594943,2.0185287583,-0.2224202655
 H,0,-5.2346202406,2.9335724848,-0.1904662349
 C,0,-7.1394145655,2.0138717259,-0.2225828927
 H,0,-7.6951937847,1.0829963066,-0.2550897782
 H,0,-7.717996614,2.9273424216,-0.1906837936
 Recover connectivity data from disk.

 GradGradGradGradGradGradGradGradGradGradGradGradGradGradGradGradGradGrad
 Berny optimization.
 Initialization pass.
                           ----------------------------
                           !    Initial Parameters    !
                           ! (Angstroms and Degrees)  !
 --------------------------                            --------------------------
 ! Name  Definition              Value          Derivative Info.                !
 --------------------------------------------------------------------------------
 ! R1    R(1,2)                  1.2038         calculate D2E/DX2 analytically  !
 ! R2    R(2,3)                  1.1084         calculate D2E/DX2 analytically  !
 ! R3    R(2,4)                  1.4708         calculate D2E/DX2 analytically  !
 ! R4    R(4,5)                  1.0836         calculate D2E/DX2 analytically  !
 ! R5    R(4,6)                  1.3253         calculate D2E/DX2 analytically  !
 ! R6    R(6,7)                  1.0847         calculate D2E/DX2 analytically  !
 ! R7    R(6,8)                  1.0818         calculate D2E/DX2 analytically  !
 ! A1    A(1,2,3)              120.7529         calculate D2E/DX2 analytically  !
 ! A2    A(1,2,4)              124.1773         calculate D2E/DX2 analytically  !
 ! A3    A(3,2,4)              115.0698         calculate D2E/DX2 analytically  !
 ! A4    A(2,4,5)              116.4794         calculate D2E/DX2 analytically  !
 ! A5    A(2,4,6)              120.9869         calculate D2E/DX2 analytically  !
 ! A6    A(5,4,6)              122.5336         calculate D2E/DX2 analytically  !
 ! A7    A(4,6,7)              121.0254         calculate D2E/DX2 analytically  !
 ! A8    A(4,6,8)              122.1325         calculate D2E/DX2 analytically  !
 ! A9    A(7,6,8)              116.8421         calculate D2E/DX2 analytically  !
 ! D1    D(1,2,4,5)              0.0            calculate D2E/DX2 analytically  !
 ! D2    D(1,2,4,6)            180.0            calculate D2E/DX2 analytically  !
 ! D3    D(3,2,4,5)            180.0            calculate D2E/DX2 analytically  !
 ! D4    D(3,2,4,6)              0.0            calculate D2E/DX2 analytically  !
 ! D5    D(2,4,6,7)              0.0            calculate D2E/DX2 analytically  !
 ! D6    D(2,4,6,8)            180.0            calculate D2E/DX2 analytically  !
 ! D7    D(5,4,6,7)            180.0            calculate D2E/DX2 analytically  !
 ! D8    D(5,4,6,8)              0.0            calculate D2E/DX2 analytically  !
 --------------------------------------------------------------------------------
 Trust Radius=3.00D-01 FncErr=1.00D-07 GrdErr=1.00D-07 EigMax=2.50D+02 EigMin=1.00D-04
 Number of steps in this run=      2 maximum allowed number of steps=      2.
 GradGradGradGradGradGradGradGradGradGradGradGradGradGradGradGradGradGrad

                          Input orientation:                          
 ---------------------------------------------------------------------
 Center     Atomic      Atomic             Coordinates (Angstroms)
 Number     Number       Type             X           Y           Z
 ---------------------------------------------------------------------
      1          8           0       -3.850328    0.698345   -0.268522
      2          6           0       -5.052505    0.761078   -0.266331
      3          1           0       -5.668167   -0.160048   -0.298498
      4          6           0       -5.814159    2.018529   -0.222420
      5          1           0       -5.234620    2.933572   -0.190466
      6          6           0       -7.139415    2.013872   -0.222583
      7          1           0       -7.695194    1.082996   -0.255090
      8          1           0       -7.717997    2.927342   -0.190684
 ---------------------------------------------------------------------
                    Distance matrix (angstroms):
                    1          2          3          4          5
     1  O    0.000000
     2  C    1.203815   0.000000
     3  H    2.010541   1.108398   0.000000
     4  C    2.366780   1.470792   2.184788   0.000000
     5  H    2.630324   2.181434   3.125719   1.083601   0.000000
     6  C    3.542713   2.434460   2.626073   1.325263   2.115449
     7  H    3.864082   2.662247   2.378210   2.101090   3.079485
     8  H    4.464678   3.435589   3.707480   2.109869   2.483384
                    6          7          8
     6  C    0.000000
     7  H    1.084655   0.000000
     8  H    1.081759   1.845611   0.000000
 Stoichiometry    C3H4O
 Framework group  CS[SG(C3H4O)]
 Deg. of freedom    13
 Full point group                 CS      NOp   2
 Largest Abelian subgroup         CS      NOp   2
 Largest concise Abelian subgroup C1      NOp   1
                         Standard orientation:                         
 ---------------------------------------------------------------------
 Center     Atomic      Atomic             Coordinates (Angstroms)
 Number     Number       Type             X           Y           Z
 ---------------------------------------------------------------------
      1          8           0       -1.203901   -1.319927   -0.000000
      2          6           0       -0.145836   -0.745759   -0.000000
      3          1           0        0.806627   -1.312646   -0.000000
      4          6           0       -0.000000    0.717785    0.000000
      5          1           0       -0.917239    1.294729    0.000000
      6          6           0        1.198183    1.284072    0.000000
      7          1           0        2.100795    0.682601    0.000000
      8          1           0        1.326943    2.358141    0.000000
 ---------------------------------------------------------------------
 Rotational constants (GHZ):          48.3234985           4.6972739           4.2811279
 Standard basis: TZVP (5D, 7F)
 There are    80 symmetry adapted cartesian basis functions of A'  symmetry.
 There are    24 symmetry adapted cartesian basis functions of A"  symmetry.
 There are    76 symmetry adapted basis functions of A'  symmetry.
 There are    24 symmetry adapted basis functions of A"  symmetry.
   100 basis functions,   172 primitive gaussians,   104 cartesian basis functions
    15 alpha electrons       15 beta electrons
       nuclear repulsion energy       103.5280072901 Hartrees.
 NAtoms=    8 NActive=    8 NUniq=    8 SFac= 1.00D+00 NAtFMM=   60 NAOKFM=F Big=F
 Integral buffers will be    131072 words long.
 Raffenetti 2 integral format.
 Two-electron integral symmetry is turned on.
 One-electron integrals computed using PRISM.
 NBasis=   100 RedAO= T EigKep=  3.63D-04  NBF=    76    24
 NBsUse=   100 1.00D-06 EigRej= -1.00D+00 NBFU=    76    24
 Initial guess from the checkpoint file:  "/rds/general/user/rk820/home/dibs-g16/fc_ht/exercise_8-7/Acrolein_es.chk"
 B after Tr=    -0.000000   -0.000000   -0.000000
         Rot=    1.000000   -0.000000   -0.000000    0.000000 Ang=   0.00 deg.
 Initial guess orbital symmetries:
       Occupied  (A') (A') (A') (A') (A') (A') (A') (A') (A') (A')
                 (A') (A") (A') (A") (A')
       Virtual   (A") (A") (A') (A') (A') (A') (A') (A') (A") (A')
                 (A') (A") (A') (A") (A') (A') (A') (A') (A') (A')
                 (A') (A') (A') (A") (A') (A') (A') (A') (A') (A")
                 (A') (A") (A") (A') (A') (A') (A") (A') (A") (A')
                 (A") (A') (A') (A") (A') (A') (A') (A') (A') (A")
                 (A') (A") (A') (A") (A") (A') (A') (A') (A") (A')
                 (A') (A') (A") (A') (A") (A') (A') (A') (A") (A')
                 (A') (A') (A') (A') (A') (A') (A') (A") (A') (A')
                 (A') (A') (A') (A') (A')
 Keep R1 ints in memory in symmetry-blocked form, NReq=55822198.
 Requested convergence on RMS density matrix=1.00D-08 within 128 cycles.
 Requested convergence on MAX density matrix=1.00D-06.
 Requested convergence on             energy=1.00D-06.
 No special actions if energy rises.
 SCF Done:  E(RCAM-B3LYP) =  -191.888413481     A.U. after    1 cycles
            NFock=  1  Conv=0.23D-08     -V/T= 2.0039
 DoSCS=F DFT=T ScalE2(SS,OS)=  1.000000  1.000000
 Range of M.O.s used for correlation:     1   100
 NBasis=   100 NAE=    15 NBE=    15 NFC=     0 NFV=     0
 NROrb=    100 NOA=    15 NOB=    15 NVA=    85 NVB=    85

 **** Warning!!: The largest alpha MO coefficient is  0.13746970D+02

 Symmetrizing basis deriv contribution to polar:
 IMax=3 JMax=2 DiffMx= 0.00D+00
 G2DrvN: will do     9 centers at a time, making    1 passes.
 Calling FoFCou, ICntrl=  3107 FMM=F I1Cent=   0 AccDes= 0.00D+00.
 End of G2Drv F.D. properties file   721 does not exist.
 End of G2Drv F.D. properties file   722 does not exist.
 End of G2Drv F.D. properties file   788 does not exist.
          IDoAtm=11111111
          Differentiating once with respect to electric field.
                with respect to dipole field.
          Differentiating once with respect to nuclear coordinates.
 Keep R1 ints in memory in symmetry-blocked form, NReq=55717527.
          There are    27 degrees of freedom in the 1st order CPHF.  IDoFFX=6 NUNeed=     3.
     24 vectors produced by pass  0 Test12= 4.72D-15 3.70D-09 XBig12= 3.17D+01 4.09D+00.
 AX will form    24 AO Fock derivatives at one time.
     24 vectors produced by pass  1 Test12= 4.72D-15 3.70D-09 XBig12= 4.47D+00 4.85D-01.
     24 vectors produced by pass  2 Test12= 4.72D-15 3.70D-09 XBig12= 1.46D-01 8.86D-02.
     24 vectors produced by pass  3 Test12= 4.72D-15 3.70D-09 XBig12= 1.46D-03 6.97D-03.
     24 vectors produced by pass  4 Test12= 4.72D-15 3.70D-09 XBig12= 5.64D-06 4.80D-04.
     24 vectors produced by pass  5 Test12= 4.72D-15 3.70D-09 XBig12= 1.77D-08 2.54D-05.
     15 vectors produced by pass  6 Test12= 4.72D-15 3.70D-09 XBig12= 8.03D-11 1.60D-06.
      3 vectors produced by pass  7 Test12= 4.72D-15 3.70D-09 XBig12= 3.22D-13 9.13D-08.
      1 vectors produced by pass  8 Test12= 4.72D-15 3.70D-09 XBig12= 8.22D-16 4.99D-09.
 InvSVY:  IOpt=1 It=  1 EMax= 1.78D-15
 Solved reduced A of dimension   163 with    27 vectors.
 Isotropic polarizability for W=    0.000000       38.33 Bohr**3.
 End of Minotr F.D. properties file   721 does not exist.
 End of Minotr F.D. properties file   722 does not exist.
 End of Minotr F.D. properties file   788 does not exist.

 **********************************************************************

            Population analysis using the SCF Density.

 **********************************************************************

 Orbital symmetries:
       Occupied  (A') (A') (A') (A') (A') (A') (A') (A') (A') (A')
                 (A') (A") (A') (A") (A')
       Virtual   (A") (A") (A') (A') (A') (A') (A') (A') (A") (A')
                 (A') (A") (A') (A") (A') (A') (A') (A') (A') (A')
                 (A') (A') (A') (A") (A') (A') (A') (A') (A') (A")
                 (A') (A") (A") (A') (A') (A') (A") (A') (A") (A')
                 (A") (A') (A') (A") (A') (A') (A') (A') (A') (A")
                 (A') (A") (A') (A") (A") (A') (A') (A') (A") (A')
                 (A') (A') (A") (A') (A") (A') (A') (A') (A") (A')
                 (A') (A') (A') (A') (A') (A') (A') (A") (A') (A')
                 (A') (A') (A') (A') (A')
 The electronic state is 1-A'.
 Alpha  occ. eigenvalues --  -19.20361 -10.34305 -10.28144 -10.27250  -1.14175
 Alpha  occ. eigenvalues --   -0.89760  -0.73319  -0.65819  -0.56146  -0.55654
 Alpha  occ. eigenvalues --   -0.50072  -0.48219  -0.46690  -0.36439  -0.33450
 Alpha virt. eigenvalues --   -0.02661   0.08411   0.09475   0.10180   0.13840
 Alpha virt. eigenvalues --    0.15801   0.17535   0.20728   0.23691   0.24075
 Alpha virt. eigenvalues --    0.28009   0.29697   0.32026   0.34895   0.36382
 Alpha virt. eigenvalues --    0.37621   0.41658   0.46115   0.47052   0.50143
 Alpha virt. eigenvalues --    0.50852   0.52740   0.56499   0.58403   0.61753
 Alpha virt. eigenvalues --    0.67137   0.71642   0.76008   0.88141   1.22954
 Alpha virt. eigenvalues --    1.24145   1.29803   1.30000   1.30629   1.31850
 Alpha virt. eigenvalues --    1.37236   1.38074   1.39244   1.46034   1.47748
 Alpha virt. eigenvalues --    1.48340   1.52853   1.57064   1.57477   1.70558
 Alpha virt. eigenvalues --    1.74185   1.78989   1.83193   1.86596   1.89725
 Alpha virt. eigenvalues --    1.95988   1.98454   2.00804   2.10710   2.14362
 Alpha virt. eigenvalues --    2.14756   2.26987   2.32312   2.42854   2.46504
 Alpha virt. eigenvalues --    2.48032   2.51912   2.55543   2.64366   2.69341
 Alpha virt. eigenvalues --    2.69601   2.72348   2.76080   2.79116   2.83240
 Alpha virt. eigenvalues --    2.94046   3.02913   3.08683   3.12199   3.20354
 Alpha virt. eigenvalues --    3.26751   3.27483   3.27766   3.58283   3.61228
 Alpha virt. eigenvalues --    4.28535  21.59272  22.03398  22.16082  43.49643
          Condensed to atoms (all electrons):
               1          2          3          4          5          6
     1  O    7.842073   0.604331  -0.060144  -0.125648   0.005038   0.013939
     2  C    0.604331   4.709161   0.452664   0.130377  -0.019026   0.033633
     3  H   -0.060144   0.452664   0.710459  -0.233997   0.005608   0.055076
     4  C   -0.125648   0.130377  -0.233997   5.673514   0.380571   0.317922
     5  H    0.005038  -0.019026   0.005608   0.380571   0.483409  -0.019988
     6  C    0.013939   0.033633   0.055076   0.317922  -0.019988   5.041707
     7  H    0.000391  -0.001461   0.003095  -0.063176   0.003871   0.424630
     8  H   -0.000386   0.003764  -0.000457  -0.019393  -0.005151   0.399528
               7          8
     1  O    0.000391  -0.000386
     2  C   -0.001461   0.003764
     3  H    0.003095  -0.000457
     4  C   -0.063176  -0.019393
     5  H    0.003871  -0.005151
     6  C    0.424630   0.399528
     7  H    0.514369  -0.025018
     8  H   -0.025018   0.504118
 Mulliken charges:
               1
     1  O   -0.279594
     2  C    0.086558
     3  H    0.067695
     4  C   -0.060171
     5  H    0.165666
     6  C   -0.266448
     7  H    0.143300
     8  H    0.142995
 Sum of Mulliken charges =  -0.00000
 Mulliken charges with hydrogens summed into heavy atoms:
               1
     1  O   -0.279594
     2  C    0.154253
     4  C    0.105495
     6  C    0.019847
 APT charges:
               1
     1  O   -0.707936
     2  C    0.848506
     3  H   -0.053233
     4  C   -0.242134
     5  H    0.054054
     6  C   -0.017146
     7  H    0.058154
     8  H    0.059735
 Sum of APT charges =   0.00000
 APT charges with hydrogens summed into heavy atoms:
               1
     1  O   -0.707936
     2  C    0.795273
     4  C   -0.188080
     6  C    0.100744
 Electronic spatial extent (au):  <R**2>=            297.1605
 Charge=             -0.0000 electrons
 Dipole moment (field-independent basis, Debye):
    X=              2.6124    Y=              2.1339    Z=             -0.0000  Tot=              3.3731
 Quadrupole moment (field-independent basis, Debye-Ang):
   XX=            -24.9833   YY=            -24.3897   ZZ=            -25.2005
   XY=             -2.9372   XZ=             -0.0000   YZ=             -0.0000
 Traceless Quadrupole moment (field-independent basis, Debye-Ang):
   XX=             -0.1255   YY=              0.4681   ZZ=             -0.3427
   XY=             -2.9372   XZ=             -0.0000   YZ=             -0.0000
 Octapole moment (field-independent basis, Debye-Ang**2):
  XXX=              3.4901  YYY=              5.9053  ZZZ=              0.0000  XYY=              5.3615
  XXY=              4.7819  XXZ=              0.0000  XZZ=             -2.7526  YZZ=             -3.6338
  YYZ=              0.0000  XYZ=              0.0000
 Hexadecapole moment (field-independent basis, Debye-Ang**3):
 XXXX=           -151.5972 YYYY=           -201.6874 ZZZZ=            -27.0669 XXXY=            -61.5293
 XXXZ=             -0.0000 YYYX=            -59.1865 YYYZ=             -0.0000 ZZZX=             -0.0000
 ZZZY=             -0.0000 XXYY=            -61.5098 XXZZ=            -31.3201 YYZZ=            -41.4405
 XXYZ=             -0.0000 YYXZ=             -0.0000 ZZXY=            -20.0850
 N-N= 1.035280072901D+02 E-N=-6.553150938327D+02  KE= 1.911364969150D+02
 Symmetry A'   KE= 1.852972120376D+02
 Symmetry A"   KE= 5.839284877372D+00
  Exact polarizability:      49.377      12.311      43.780      -0.000      -0.000      21.839
 Approx polarizability:      61.283      16.426      46.679       0.000       0.000      25.314
 Calling FoFJK, ICntrl=    100127 FMM=F ISym2X=1 I1Cent= 0 IOpClX= 0 NMat=1 NMatS=1 NMatT=0.
 Full mass-weighted force constant matrix:
 Low frequencies ---  -20.5349   -6.3628   -2.8469   -0.0006    0.0004    0.0008
 Low frequencies ---  165.7776  327.7025  581.8265
 Diagonal vibrational polarizability:
        2.1322474       5.3083797       7.7284528
 Harmonic frequencies (cm**-1), IR intensities (KM/Mole), Raman scattering
 activities (A**4/AMU), depolarization ratios for plane and unpolarized
 incident light, reduced masses (AMU), force constants (mDyne/A),
 and normal coordinates:
                      1                      2                      3
                     A"                     A'                     A'
 Frequencies --    165.7771               327.7025               581.8265
 Red. masses --      3.3818                 2.6734                 4.9192
 Frc consts  --      0.0548                 0.1692                 0.9811
 IR Inten    --      5.1736                10.9227                 5.4354
  Atom  AN      X      Y      Z        X      Y      Z        X      Y      Z
     1   8     0.00  -0.00   0.22     0.11  -0.12  -0.00     0.11   0.33  -0.00
     2   6    -0.00   0.00  -0.24    -0.06   0.17   0.00     0.25   0.01  -0.00
     3   1     0.00   0.00  -0.62     0.08   0.39   0.00     0.21  -0.06  -0.00
     4   6    -0.00   0.00  -0.23    -0.14   0.18   0.00    -0.17  -0.14   0.00
     5   1    -0.00   0.00  -0.35    -0.04   0.33   0.00    -0.34  -0.43  -0.00
     6   6     0.00  -0.00   0.19     0.03  -0.18  -0.00    -0.20  -0.21  -0.00
     7   1     0.00  -0.00   0.37    -0.21  -0.53  -0.00    -0.34  -0.41   0.00
     8   1    -0.00  -0.00   0.40     0.45  -0.23  -0.00     0.02  -0.24  -0.00
                      4                      5                      6
                     A"                     A'                     A"
 Frequencies --    617.9075               933.9844              1018.9916
 Red. masses --      1.1861                 1.5835                 1.2957
 Frc consts  --      0.2668                 0.8139                 0.7927
 IR Inten    --     12.1736                25.0002                59.3111
  Atom  AN      X      Y      Z        X      Y      Z        X      Y      Z
     1   8     0.00   0.00   0.00    -0.04  -0.01   0.00     0.00  -0.00  -0.02
     2   6     0.00   0.00   0.03     0.05  -0.15  -0.00    -0.00   0.00   0.09
     3   1     0.00   0.00   0.44    -0.03  -0.28   0.00    -0.00   0.00  -0.32
     4   6    -0.00  -0.00  -0.12    -0.01   0.09   0.00     0.00  -0.00  -0.03
     5   1     0.00  -0.00   0.35    -0.20  -0.19  -0.00     0.00   0.00   0.33
     6   6     0.00  -0.00   0.02     0.00   0.13  -0.00    -0.00  -0.00  -0.13
     7   1     0.00   0.00  -0.49    -0.35  -0.41  -0.00     0.00   0.00   0.71
     8   1    -0.00  -0.00   0.65     0.71   0.05   0.00    -0.00  -0.00   0.51
                      7                      8                      9
                     A"                     A"                     A'
 Frequencies --   1040.7678              1044.4122              1186.1735
 Red. masses --      1.3896                 1.3962                 2.0035
 Frc consts  --      0.8869                 0.8973                 1.6609
 IR Inten    --      1.3934                 9.4233                37.9036
  Atom  AN      X      Y      Z        X      Y      Z        X      Y      Z
     1   8    -0.00  -0.00  -0.02    -0.00  -0.00   0.04    -0.01   0.03   0.00
     2   6     0.00  -0.00   0.07     0.00   0.00  -0.18     0.10  -0.20   0.00
     3   1     0.00   0.00  -0.26     0.00   0.00   0.72     0.06  -0.27   0.00
     4   6     0.00   0.00  -0.14     0.00  -0.00   0.03    -0.09   0.17  -0.00
     5   1    -0.00  -0.00   0.74     0.00   0.00   0.43     0.29   0.77   0.00
     6   6    -0.00   0.00   0.10    -0.00   0.00  -0.03    -0.01  -0.07   0.00
     7   1    -0.00  -0.00   0.01    -0.00   0.00   0.48     0.16   0.19  -0.00
     8   1     0.00  -0.00  -0.59     0.00  -0.00  -0.19    -0.30  -0.03  -0.00
                     10                     11                     12
                     A'                     A'                     A'
 Frequencies --   1313.4652              1408.2351              1469.9769
 Red. masses --      1.4611                 1.1794                 1.2089
 Frc consts  --      1.4851                 1.3780                 1.5391
 IR Inten    --      2.7524                 7.1754                13.8341
  Atom  AN      X      Y      Z        X      Y      Z        X      Y      Z
     1   8     0.01   0.01   0.00    -0.06   0.01  -0.00     0.05   0.01   0.00
[...]
           Z            0.00000   0.00000   1.00000
 This molecule is an asymmetric top.
 Rotational symmetry number  1.
 Rotational temperatures (Kelvin)      2.31916     0.22543     0.20546
 Rotational constants (GHZ):          48.32350     4.69727     4.28113
 Zero-point vibrational energy     162658.4 (Joules/Mol)
                                   38.87630 (Kcal/Mol)
 Warning -- explicit consideration of   4 degrees of freedom as
           vibrations may cause significant error
 Vibrational temperatures:    238.52   471.49   837.12   889.03  1343.80
          (Kelvin)           1466.10  1497.43  1502.68  1706.64  1889.78
                             2026.14  2114.97  2473.93  2624.73  4210.97
                             4545.65  4608.75  4678.91
 
 Zero-point correction=                           0.061953 (Hartree/Particle)
 Thermal correction to Energy=                    0.066298
 Thermal correction to Enthalpy=                  0.067242
 Thermal correction to Gibbs Free Energy=         0.035675
 Sum of electronic and zero-point Energies=           -191.826460
 Sum of electronic and thermal Energies=              -191.822116
 Sum of electronic and thermal Enthalpies=            -191.821171
 Sum of electronic and thermal Free Energies=         -191.852739
 
                     E (Thermal)             CV                S
                      KCal/Mol        Cal/Mol-Kelvin    Cal/Mol-Kelvin
 Total                   41.603             13.608             66.439
 Electronic               0.000              0.000              0.000
 Translational            0.889              2.981             37.991
 Rotational               0.889              2.981             23.318
 Vibrational             39.825              7.647              5.130
 Vibration     1          0.624              1.885              2.483
 Vibration     2          0.711              1.620              1.271
 Vibration     3          0.939              1.071              0.482
 Vibration     4          0.978              0.994              0.420
                       Q            Log10(Q)             Ln(Q)
 Total Bot       0.389815D-16        -16.409142        -37.783445
 Total V=0       0.122288D+13         12.087385         27.832233
 Vib (Bot)       0.849436D-28        -28.070869        -64.635565
 Vib (Bot)    1  0.121730D+01          0.085397          0.196634
 Vib (Bot)    2  0.570973D+00         -0.243384         -0.560413
 Vib (Bot)    3  0.261423D+00         -0.582656         -1.341614
 Vib (Bot)    4  0.237193D+00         -0.624898         -1.438882
 Vib (V=0)       0.266476D+01          0.425658          0.980113
 Vib (V=0)    1  0.181598D+01          0.259112          0.596628
 Vib (V=0)    2  0.125895D+01          0.100010          0.230281
 Vib (V=0)    3  0.106422D+01          0.027031          0.062240
 Vib (V=0)    4  0.105341D+01          0.022597          0.052031
 Electronic      0.100000D+01          0.000000          0.000000
 Translational   0.164832D+08          7.217041         16.617851
 Rotational      0.278411D+05          4.444687         10.234270
 ***** Axes restored to original set *****
 -------------------------------------------------------------------
 Center     Atomic                   Forces (Hartrees/Bohr)
 Number     Number              X              Y              Z
 -------------------------------------------------------------------
      1        8          -0.000219801    0.000066315    0.000002316
      2        6           0.000530657   -0.000179318   -0.000006262
      3        1          -0.000169199   -0.000063000   -0.000002200
      4        6          -0.000214074    0.000193147    0.000006745
      5        1           0.000075382    0.000012296    0.000000429
      6        6           0.000058954    0.000008378    0.000000293
      7        1          -0.000026299   -0.000021707   -0.000000758
      8        1          -0.000035621   -0.000016111   -0.000000563
 -------------------------------------------------------------------
 Cartesian Forces:  Max     0.000530657 RMS     0.000143521
 FormGI is forming the generalized inverse of G from B-inverse, IUseBI=4.

 GradGradGradGradGradGradGradGradGradGradGradGradGradGradGradGradGradGrad
 Berny optimization.
 Internal  Forces:  Max     0.000223988 RMS     0.000082439
 Search for a local minimum.
 Step number   1 out of a maximum of    2
 All quantities printed in internal units (Hartrees-Bohrs-Radians)
 Second derivative matrix not updated -- analytic derivatives used.
 ITU=  0
     Eigenvalues ---    0.00611   0.02224   0.03131   0.04519   0.07657
     Eigenvalues ---    0.10189   0.10681   0.11586   0.14112   0.16664
     Eigenvalues ---    0.22844   0.30688   0.31619   0.35996   0.36331
     Eigenvalues ---    0.36667   0.64751   0.88950
 Angle between quadratic step and forces=  30.59 degrees.
 Linear search not attempted -- first point.
 Iteration  1 RMS(Cart)=  0.00063976 RMS(Int)=  0.00000031
 Iteration  2 RMS(Cart)=  0.00000032 RMS(Int)=  0.00000000
 ClnCor:  largest displacement from symmetrization is 7.67D-09 for atom     2.
 Variable       Old X    -DE/DX   Delta X   Delta X   Delta X     New X
                                 (Linear)    (Quad)   (Total)
    R1        2.27488  -0.00022   0.00000  -0.00041  -0.00041   2.27447
    R2        2.09457   0.00015   0.00000   0.00055   0.00055   2.09512
    R3        2.77939   0.00022   0.00000   0.00095   0.00095   2.78034
    R4        2.04771   0.00005   0.00000   0.00013   0.00013   2.04784
    R5        2.50438   0.00000   0.00000  -0.00008  -0.00008   2.50431
    R6        2.04970   0.00003   0.00000   0.00011   0.00011   2.04981
    R7        2.04423   0.00001   0.00000   0.00002   0.00002   2.04425
    A1        2.10754   0.00012   0.00000   0.00089   0.00089   2.10842
    A2        2.16730  -0.00001   0.00000   0.00008   0.00008   2.16739
    A3        2.00835  -0.00011   0.00000  -0.00097  -0.00097   2.00738
    A4        2.03295  -0.00003   0.00000  -0.00032  -0.00032   2.03263
    A5        2.11162  -0.00005   0.00000  -0.00044  -0.00044   2.11118
    A6        2.13862   0.00008   0.00000   0.00077   0.00077   2.13938
    A7        2.11229  -0.00001   0.00000  -0.00016  -0.00016   2.11213
    A8        2.13161   0.00005   0.00000   0.00049   0.00049   2.13210
    A9        2.03928  -0.00003   0.00000  -0.00033  -0.00033   2.03895
    D1       -0.00000   0.00000   0.00000   0.00000   0.00000   0.00000
    D2        3.14159   0.00000   0.00000   0.00000   0.00000  -3.14159
    D3        3.14159  -0.00000   0.00000  -0.00000   0.00000   3.14159
    D4        0.00000  -0.00000   0.00000  -0.00000   0.00000   0.00000
    D5       -0.00000  -0.00000   0.00000  -0.00000   0.00000   0.00000
    D6        3.14159  -0.00000   0.00000  -0.00000   0.00000   3.14159
    D7        3.14159  -0.00000   0.00000  -0.00000   0.00000   3.14159
    D8        0.00000  -0.00000   0.00000  -0.00000  -0.00000   0.00000
         Item               Value     Threshold  Converged?
 Maximum Force            0.000224     0.000450     YES
 RMS     Force            0.000082     0.000300     YES
 Maximum Displacement     0.001754     0.001800     YES
 RMS     Displacement     0.000640     0.001200     YES
 Predicted change in Energy=-3.651435D-07
 Optimization completed.
    -- Stationary point found.
                           ----------------------------
                           !   Optimized Parameters   !
                           ! (Angstroms and Degrees)  !
 --------------------------                            --------------------------
 ! Name  Definition              Value          Derivative Info.                !
 --------------------------------------------------------------------------------
 ! R1    R(1,2)                  1.2038         -DE/DX =   -0.0002              !
 ! R2    R(2,3)                  1.1084         -DE/DX =    0.0001              !
 ! R3    R(2,4)                  1.4708         -DE/DX =    0.0002              !
 ! R4    R(4,5)                  1.0836         -DE/DX =    0.0001              !
 ! R5    R(4,6)                  1.3253         -DE/DX =    0.0                 !
 ! R6    R(6,7)                  1.0847         -DE/DX =    0.0                 !
 ! R7    R(6,8)                  1.0818         -DE/DX =    0.0                 !
 ! A1    A(1,2,3)              120.7529         -DE/DX =    0.0001              !
 ! A2    A(1,2,4)              124.1773         -DE/DX =    0.0                 !
 ! A3    A(3,2,4)              115.0698         -DE/DX =   -0.0001              !
 ! A4    A(2,4,5)              116.4794         -DE/DX =    0.0                 !
 ! A5    A(2,4,6)              120.9869         -DE/DX =    0.0                 !
 ! A6    A(5,4,6)              122.5336         -DE/DX =    0.0001              !
 ! A7    A(4,6,7)              121.0254         -DE/DX =    0.0                 !
 ! A8    A(4,6,8)              122.1325         -DE/DX =    0.0                 !
 ! A9    A(7,6,8)              116.8421         -DE/DX =    0.0                 !
 ! D1    D(1,2,4,5)              0.0            -DE/DX =    0.0                 !
 ! D2    D(1,2,4,6)           -180.0            -DE/DX =    0.0                 !
 ! D3    D(3,2,4,5)            180.0            -DE/DX =    0.0                 !
 ! D4    D(3,2,4,6)              0.0            -DE/DX =    0.0                 !
 ! D5    D(2,4,6,7)              0.0            -DE/DX =    0.0                 !
 ! D6    D(2,4,6,8)            180.0            -DE/DX =    0.0                 !
 ! D7    D(5,4,6,7)            180.0            -DE/DX =    0.0                 !
 ! D8    D(5,4,6,8)              0.0            -DE/DX =    0.0                 !
 --------------------------------------------------------------------------------
 GradGradGradGradGradGradGradGradGradGradGradGradGradGradGradGradGradGrad


 ----------------------------------------------------------------------

 Electric dipole moment (input orientation):
 (Debye = 10**-18 statcoulomb cm , SI units = C m)
                  (au)            (Debye)         (10**-30 SI)
   Tot        0.132709D+01      0.337312D+01      0.112515D+02
   x         -0.128908D+01     -0.327653D+01     -0.109293D+02
   y          0.315119D+00      0.800952D+00      0.267169D+01
   z          0.110042D-01      0.279698D-01      0.932974D-01

 Dipole polarizability, Alpha (input orientation).
 (esu units = cm**3 , SI units = C**2 m**2 J**-1)
 Alpha(0;0):
               (au)            (10**-24 esu)      (10**-40 SI)
   iso        0.383322D+02      0.568024D+01      0.632012D+01
   aniso      0.330183D+02      0.489280D+01      0.544397D+01
   xx         0.579067D+02      0.858088D+01      0.954752D+01
   yx        -0.557008D+01     -0.825400D+00     -0.918381D+00
   yy         0.352343D+02      0.522119D+01      0.580935D+01
   zx        -0.194511D+00     -0.288236D-01     -0.320706D-01
   zy         0.467770D+00      0.693163D-01      0.771248D-01
   zz         0.218555D+02      0.323865D+01      0.360348D+01

 ----------------------------------------------------------------------

 Dipole orientation:
     8         -0.65822587         -0.29806049          7.37686003
     6         -0.77296072         -0.70680618          9.61177492
     1         -1.30489959         -2.60185132         10.32806147
     6         -0.24120159          1.18759865         11.57480600
     1          0.28333499          3.05627300         10.92209420
     6         -0.40432249          0.60647650         14.00536785
     1         -0.93383460         -1.27992328         14.60735283
     1         -0.02109559          1.97173166         15.47781068

 Electric dipole moment (dipole orientation):
 (Debye = 10**-18 statcoulomb cm , SI units = C m)
                  (au)            (Debye)         (10**-30 SI)
   Tot        0.132709D+01      0.337312D+01      0.112515D+02
   x          0.000000D+00      0.000000D+00      0.000000D+00
   y          0.000000D+00      0.000000D+00      0.000000D+00
   z          0.132709D+01      0.337312D+01      0.112515D+02

 Dipole polarizability, Alpha (dipole orientation).
 (esu units = cm**3 , SI units = C**2 m**2 J**-1)
 Alpha(0;0):
               (au)            (10**-24 esu)      (10**-40 SI)
   iso        0.383322D+02      0.568024D+01      0.632012D+01
   aniso      0.330183D+02      0.489280D+01      0.544397D+01
   xx         0.227242D+02      0.336738D+01      0.374672D+01
   yx         0.315304D+01      0.467233D+00      0.519867D+00
   yy         0.330719D+02      0.490076D+01      0.545283D+01
   zx        -0.769219D-01     -0.113987D-01     -0.126827D-01
   zy        -0.274036D+00     -0.406080D-01     -0.451825D-01
   zz         0.592003D+02      0.877258D+01      0.976081D+01

 ----------------------------------------------------------------------
 Unable to Open any file for archive entry.
 1\1\GINC-CX3-7-2\Freq\RCAM-B3LYP\TZVP\C3H4O1\RK820\08-Feb-2024\0\\#N G
 eom=AllCheck Guess=TCheck SCRF=Check GenChk RCAM-B3LYP/TZVP Freq\\Exci
 ted state optimization and frequency calculation, to be followed by FC
 -HT analysis.\\0,1\O,-3.8503277495,0.6983446832,-0.2685221086\C,-5.052
 5050273,0.7610779325,-0.2663314153\H,-5.668166964,-0.1600479226,-0.298
 4978385\C,-5.8141594943,2.0185287583,-0.2224202655\H,-5.2346202406,2.9
 335724848,-0.1904662349\C,-7.1394145655,2.0138717259,-0.2225828927\H,-
 7.6951937847,1.0829963066,-0.2550897782\H,-7.717996614,2.9273424216,-0
 .1906837936\\Version=ES64L-G16RevC.01\State=1-A'\HF=-191.8884135\RMSD=
 2.316e-09\RMSF=1.435e-04\ZeroPoint=0.0619533\Thermal=0.0662979\ETot=-1
 91.8221156\HTot=-191.8211714\GTot=-191.8527389\Dipole=-1.2890844,0.315
 1186,0.0110042\DipoleDeriv=-1.2221213,0.1555361,0.0054314,0.145519,-0.
 5331142,-0.0057529,0.0050816,-0.0057529,-0.3685736,1.3805122,-0.150707
 5,-0.0052628,-0.4772241,0.9267471,0.0240719,-0.016665,0.0240719,0.2382
 591,-0.0633767,-0.1459382,-0.0050963,-0.0811446,-0.1650275,-0.0081721,
 -0.0028336,-0.0081721,0.0687044,-0.3511058,0.2036591,0.0071119,0.39718
 2,-0.2175642,-0.002092,0.0138699,-0.002092,-0.1577312,0.0253915,-0.042
 8548,-0.0014965,-0.018826,-0.0264295,-0.0066301,-0.0006574,-0.0066301,
 0.1631988,0.1229883,-0.0347302,-0.0012128,0.0491977,0.0688655,0.010914
 1,0.001718,0.0109141,-0.2432926,0.0589699,-0.0186957,-0.0006529,-0.075
 6072,-0.043622,-0.0070884,-0.0026403,-0.0070884,0.1591156,0.0487419,0.
 0337312,0.0011779,0.0609032,-0.0098552,-0.0052506,0.0021268,-0.0052506
 ,0.1403195\Polar=57.9066583,-5.5700757,35.2343192,-0.1945113,0.4677698
 ,21.8554798\Quadrupole=-1.7084697,1.9605327,-0.252063,1.2021762,0.0419
 809,0.0773599\PG=CS [SG(C3H4O1)]\NImag=0\\0.87381384,-0.04413729,0.086
 57321,-0.00154131,0.00221514,0.02321716,-0.77241161,0.02450526,0.00085
 574,0.99512582,0.02088109,-0.11240115,-0.00173570,0.01553758,0.5777561
 6,0.00072918,-0.00173570,-0.06275778,0.00054258,0.01355519,0.19005954,
 -0.04782725,-0.03343693,-0.00116764,-0.09851782,-0.08888379,-0.0031038
 9,0.13811152,-0.01532456,0.01594405,-0.00011656,-0.07903201,-0.2269406
 5,-0.00584354,0.10694991,0.23515567,-0.00053515,-0.00011656,0.01927777
 ,-0.00275986,-0.00584354,-0.05980770,0.00373477,0.00740760,0.02328842,
 -0.06264383,0.05043563,0.00176125,-0.09372940,0.03300422,0.00115253,0.
 00717887,-0.01662226,-0.00058046,0.87917043,0.03035295,0.01213138,-0.0
 0033978,0.02405714,-0.22844015,-0.00519521,0.01353668,-0.02195550,-0.0
 0135624,0.07031272,0.61745679,0.00105995,-0.00033978,0.02184943,0.0008
 4009,-0.00519521,-0.07985030,0.00047271,-0.00135624,0.01683484,0.00245
 537,0.01742520,0.11907282,0.00111336,-0.00292647,-0.00010219,0.0107797
 6,0.01623614,0.00056698,-0.00147700,0.00280625,0.00009800,-0.13546287,
 -0.12622868,-0.00440800,0.14139656,0.00168681,0.00479496,0.00023161,-0
 .01915572,-0.02048182,-0.00083903,0.00231471,-0.00350557,-0.00020287,-
 0.12694092,-0.26391012,-0.00778625,0.13761485,0.27503057,0.00005890,0.
 00023161,-0.00182947,-0.00066893,-0.00083903,0.00351550,0.00008083,-0.
 00020287,0.00229685,-0.00443287,-0.00778625,-0.04121303,0.00480562,0.0
 0866087,0.02731828,0.00854242,0.00249344,0.00008707,-0.03782322,0.0109
 8650,0.00038366,0.00206120,-0.00083132,-0.00002903,-0.56876315,-0.0118
 6755,-0.00041442,-0.01312389,0.00350003,0.00012222,0.87495621,0.008157
 89,-0.00728102,-0.00032175,0.03007309,0.01022395,0.00022770,0.00057790
 ,0.00025566,0.00005082,-0.00469013,-0.12516196,-0.00251681,-0.02842322
 ,0.00645782,0.00001486,-0.01382369,0.65305994,0.00028488,-0.00032175,0
 .00192152,0.00105018,0.00022770,0.00371147,0.00002018,0.00005082,-0.00
 119776,-0.00016378,-0.00251681,-0.05317779,-0.00099256,0.00001486,0.00
 603294,-0.00048273,0.01845366,0.12526068,0.00116668,0.00098464,0.00003
 438,-0.00003189,-0.00338093,-0.00011806,0.00019024,0.00145784,0.000050
 91,-0.01329396,-0.03043104,-0.00106268,-0.00433845,0.00135216,0.000047
 22,-0.12928756,-0.11794054,-0.00411857,0.13500967,-0.00139197,-0.00014
 608,-0.00006379,0.00422352,0.00041171,0.00035474,-0.00081489,0.0004650
 8,0.00000178,-0.00173569,0.00384846,-0.00010079,0.00064417,0.00073342,
 -0.00037532,-0.12171255,-0.26832846,-0.00796605,0.13420919,0.27812681,
 -0.00004861,-0.00006379,0.00167841,0.00014749,0.00035474,-0.00973421,-
 0.00002846,0.00000178,0.00041423,-0.00006061,-0.00010079,0.00673119,0.
 00002249,-0.00037532,0.01146803,-0.00425030,-0.00796605,-0.04048891,0.
 00468669,0.00882714,0.02565889,-0.00175360,0.00208172,0.00007270,-0.00
 339164,-0.00438082,-0.00015298,0.00028023,0.00059614,0.00002082,-0.012
 45611,0.03026778,0.00105697,0.00111252,-0.00037192,-0.00001299,-0.1365
 6201,0.12606869,0.00440242,0.01058526,-0.01342177,-0.00046870,0.142185
 34,-0.00022492,0.00038464,0.00013082,-0.00020886,-0.00012806,-0.000524
 15,-0.00024359,0.00058126,0.00005902,-0.00376358,0.00603109,-0.0001301
 3,0.00027695,0.00088073,0.00029613,0.13125513,-0.26922592,-0.00794242,
 0.01374868,-0.01511094,-0.00067771,-0.14083982,0.27658719,-0.00000785,
 0.00013082,-0.00335704,-0.00000729,-0.00052415,0.01486347,-0.00000851,
 0.00005902,-0.00110666,-0.00013143,-0.00013013,0.00975285,0.00000967,0
 .00029613,-0.00758910,0.00458353,-0.00794242,-0.04206215,0.00048011,-0
 .00067771,0.00427237,-0.00491823,0.00878843,0.02522626\\0.00021980,-0.
 00006631,-0.00000232,-0.00053066,0.00017932,0.00000626,0.00016920,0.00
 006300,0.00000220,0.00021407,-0.00019315,-0.00000674,-0.00007538,-0.00
 001230,-0.00000043,-0.00005895,-0.00000838,-0.00000029,0.00002630,0.00
 002171,0.00000076,0.00003562,0.00001611,0.00000056\\\@
 The archive entry for this job was punched.


 A ROPE OVER THE TOP OF A FENCE HAS THE SAME LENGTH ON EACH SIDE.
 WEIGHS 1/3 POUND PER FOOT.  ON ONE END HANGS A MONKEY HOLDING A
 BANANA, AND ON THE OTHER END A WEIGHT EQUAL TO THE WEIGHT
 OF THE MONKEY.  THE BANANA WEIGHS TWO OUNCES PER INCH.
 THE ROPE IS AS LONG AS THE AGE OF THE MONKEY, 
 AND THE WEIGHT OF THE MONKEY (IN OUNCES) IS AS MUCH
 AS THE AGE OF THE MONKEY'S MOTHER.  THE COMBINED AGES OF MONKEY
 AND MOTHER ARE THIRTY YEARS.  HALF THE WEIGHT OF THE MONKEY,
  PLUS THE WEIGHT OF THE BANANA, IS ONE FOURTH AS MUCH AS THE WEIGHT
 OF THE WEIGHT AND THE ROPE.
 THE MONKEY'S MOTHER IS HALF AS OLD AS THE MONKEY WILL BE
 WHEN IT IS 3 TIMES AS OLD AS ITS MOTHER WAS WHEN
 SHE WAS HALF AS OLD AS THE MONKEY WILL BE WHEN IT IS
 AS OLD AS ITS MOTHER WILL BE WHEN SHE IS 4 TIMES AS
 OLD AS THE MONKEY WAS WHEN IT WAS TWICE AS OLD AS 
 ITS MOTHER WAS WHEN SHE WAS ONE THIRD AS OLD AS THE
 MONKEY WAS WHEN IT WAS AS OLD AS ITS MOTHER WAS WHEN 
 SHE WAS 3 TIMES AS OLD AS THE MONKEY WAS WHEN IT WAS AS OLD AS ITS
 MOTHER WAS WHEN SHE WAS 3 TIMES AS OLD AS THE MONKEY 
 WAS WHEN IT WAS ONE FOURTH WAS OLD AS IT IS NOW.

 HOW LONG IS THE BANANA?
 Job cpu time:       0 days  0 hours  2 minutes 16.0 seconds.
 Elapsed time:       0 days  0 hours  0 minutes  4.8 seconds.
 File lengths (MBytes):  RWF=     13 Int=      0 D2E=      0 Chk=     16 Scr=      1
 Normal termination of Gaussian 16 at Thu Feb  8 12:29:45 2024.
