 Entering Gaussian System, Link 0=g16
 Input=Acrolein_fc_ht.gjf
 Output=Acrolein_fc_ht.log
 Initial command:
 /apps/gaussian/g16-c01-avx2/g16/l1.exe "/var/tmp/pbs.8962196.pbs/Gau-1237592.inp" -scrdir="/var/tmp/pbs.8962196.pbs/"
 Entering Link 1 = /apps/gaussian/g16-c01-avx2/g16/l1.exe PID=   1237618.
  
 Copyright (c) 1988-2019, Gaussian, Inc.  All Rights Reserved.
  
 This is part of the Gaussian(R) 16 program.  It is based on
 the Gaussian(R) 09 system (copyright 2009, Gaussian, Inc.),
 the Gaussian(R) 03 system (copyright 2003, Gaussian, Inc.),
 the Gaussian(R) 98 system (copyright 1998, Gaussian, Inc.),
 the Gaussian(R) 94 system (copyright 1995, Gaussian, Inc.),
 the Gaussian 92(TM) system (copyright 1992, Gaussian, Inc.),
 the Gaussian 90(TM) system (copyright 1990, Gaussian, Inc.),
 the Gaussian 88(TM) system (copyright 1988, Gaussian, Inc.),
 the Gaussian 86(TM) system (copyright 1986, Carnegie Mellon
 University), and the Gaussian 82(TM) system (copyright 1983,
 Carnegie Mellon University). Gaussian is a federally registered
 trademark of Gaussian, Inc.
  
 This software contains proprietary and confidential information,
 including trade secrets, belonging to Gaussian, Inc.
  
 This software is provided under written license and may be
 used, copied, transmitted, or stored only in accord with that
 written license.
  
 The following legend is applicable only to US Government
 contracts under FAR:
  
                    RESTRICTED RIGHTS LEGEND
  
 Use, reproduction and disclosure by the US Government is
 subject to restrictions as set forth in subparagraphs (a)
 and (c) of the Commercial Computer Software - Restricted
 Rights clause in FAR 52.227-19.
  
 Gaussian, Inc.
 340 Quinnipiac St., Bldg. 40, Wallingford CT 06492
  
  
 ---------------------------------------------------------------
 Warning -- This program may not be used in any manner that
 competes with the business of Gaussian, Inc. or will provide
 assistance to any competitor of Gaussian, Inc.  The licensee
 of this program is prohibited from giving any competitor of
 Gaussian, Inc. access to this program.  By using this program,
 the user acknowledges that Gaussian, Inc. is engaged in the
 business of creating and licensing software in the field of
 computational chemistry and represents and warrants to the
 licensee that it is not a competitor of Gaussian, Inc. and that
 it will not use this program in any manner prohibited above.
 ---------------------------------------------------------------
  

 Cite this work as:
 Gaussian 16, Revision C.01,
 M. J. Frisch, G. W. Trucks, H. B. Schlegel, G. E. Scuseria, 
 M. A. Robb, J. R. Cheeseman, G. Scalmani, V. Barone, 
 G. A. Petersson, H. Nakatsuji, X. Li, M. Caricato, A. V. Marenich, 
 J. Bloino, B. G. Janesko, R. Gomperts, B. Mennucci, H. P. Hratchian, 
 J. V. Ortiz, A. F. Izmaylov, J. L. Sonnenberg, D. Williams-Young, 
 F. Ding, F. Lipparini, F. Egidi, J. Goings, B. Peng, A. Petrone, 
 T. Henderson, D. Ranasinghe, V. G. Zakrzewski, J. Gao, N. Rega, 
 G. Zheng, W. Liang, M. Hada, M. Ehara, K. Toyota, R. Fukuda, 
 J. Hasegawa, M. Ishida, T. Nakajima, Y. Honda, O. Kitao, H. Nakai, 
 T. Vreven, K. Throssell, J. A. Montgomery, Jr., J. E. Peralta, 
 F. Ogliaro, M. J. Bearpark, J. J. Heyd, E. N. Brothers, K. N. Kudin, 
 V. N. Staroverov, T. A. Keith, R. Kobayashi, J. Normand, 
 K. Raghavachari, A. P. Rendell, J. C. Burant, S. S. Iyengar, 
 J. Tomasi, M. Cossi, J. M. Millam, M. Klene, C. Adamo, R. Cammi, 
 J. W. Ochterski, R. L. Martin, K. Morokuma, O. Farkas, 
 J. B. Foresman, and D. J. Fox, Gaussian, Inc., Wallingford CT, 2019.
 
 ******************************************
 Gaussian 16:  ES64L-G16RevC.01  3-Jul-2019
                21-Feb-2024 
 ******************************************
 %oldchk=/rds/general/user/rk820/home/dibs-g16/fc_ht/exercise_8-7/Acrolein_gs.chk
 %chk=/rds/general/user/rk820/home/dibs-g16/fc_ht/exercise_8-7/Acrolein_fc_ht.chk
 %NProcShared=32
 Will use up to   32 processors via shared memory.
 %Mem=110GB
 Copying data from "/rds/general/user/rk820/home/dibs-g16/fc_ht/exercise_8-7/Acrolein_gs.chk" to current chk file "/rds/general/user/rk820/home/dibs-g16/fc_ht/exercise_8-7/Acrolein_fc_ht.chk"
 IOpt=  2 FromEx=T IUOpen= 4 IOptOp= 5 NList=   0 IFRang= 0 IUIn= 4 IUOut= 2.
 ----------------------------------------------------------------------
 # B3LYP/TZVP Freq(ReadFC, FC, ReadFCHT) NoSymm Geom=Checkpoint Guess=R
 ead
 ----------------------------------------------------------------------
 1/29=2,38=1,172=1/1;
 2/12=2,15=1,40=1/2;
 7/8=1,25=11,30=1,71=10,121=1/16,18;
 99/5=5/99;
 -------------------------------------------------------------
 FC-HT for Acrolein, using gs and es opt and freq checkpoints.
 -------------------------------------------------------------
 Structure from the checkpoint file:  "/rds/general/user/rk820/home/dibs-g16/fc_ht/exercise_8-7/Acrolein_fc_ht.chk"
 Charge =  0 Multiplicity = 1
 Redundant internal coordinates found in file.  (old form).
 O,0,-3.8501003972,0.698760444,-0.2685075899
 C,0,-5.0520752891,0.7609500657,-0.2663358805
 H,0,-5.6684858401,-0.1602346793,-0.2985043602
 C,0,-5.8143562833,2.0186571307,-0.2224157827
 H,0,-5.234122286,2.9334506657,-0.1904704889
 C,0,-7.1395523059,2.0139355263,-0.2225806648
 H,0,-7.6952836133,1.0829443676,-0.255091592
 H,0,-7.7184084252,2.9272228695,-0.1906879685
 Recover connectivity data from disk.
                           ----------------------------
                           !    Current Parameters    !
                           ! (Angstroms and Degrees)  !
 --------------------------                            --------------------------
 ! Name  Definition              Value          Derivative Info.                !
 --------------------------------------------------------------------------------
 ! R1    R(1,2)                  1.2036         estimate D2E/DX2                !
 ! R2    R(2,3)                  1.1089         estimate D2E/DX2                !
 ! R3    R(2,4)                  1.4713         estimate D2E/DX2                !
 ! R4    R(4,5)                  1.0838         estimate D2E/DX2                !
 ! R5    R(4,6)                  1.3252         estimate D2E/DX2                !
 ! R6    R(6,7)                  1.0847         estimate D2E/DX2                !
 ! R7    R(6,8)                  1.0818         estimate D2E/DX2                !
 ! A1    A(1,2,3)              120.8087         estimate D2E/DX2                !
 ! A2    A(1,2,4)              124.1677         estimate D2E/DX2                !
 ! A3    A(3,2,4)              115.0236         estimate D2E/DX2                !
 ! A4    A(2,4,5)              116.4256         estimate D2E/DX2                !
 ! A5    A(2,4,6)              120.9998         estimate D2E/DX2                !
 ! A6    A(5,4,6)              122.5746         estimate D2E/DX2                !
 ! A7    A(4,6,7)              121.0229         estimate D2E/DX2                !
 ! A8    A(4,6,8)              122.1471         estimate D2E/DX2                !
 ! A9    A(7,6,8)              116.83           estimate D2E/DX2                !
 ! D1    D(1,2,4,5)              0.0            estimate D2E/DX2                !
 ! D2    D(1,2,4,6)            180.0            estimate D2E/DX2                !
 ! D3    D(3,2,4,5)            180.0            estimate D2E/DX2                !
 ! D4    D(3,2,4,6)              0.0            estimate D2E/DX2                !
 ! D5    D(2,4,6,7)              0.0            estimate D2E/DX2                !
 ! D6    D(2,4,6,8)            180.0            estimate D2E/DX2                !
 ! D7    D(5,4,6,7)            180.0            estimate D2E/DX2                !
 ! D8    D(5,4,6,8)              0.0            estimate D2E/DX2                !
 --------------------------------------------------------------------------------
                          Input orientation:                          
 ---------------------------------------------------------------------
 Center     Atomic      Atomic             Coordinates (Angstroms)
 Number     Number       Type             X           Y           Z
 ---------------------------------------------------------------------
      1          8           0       -3.850100    0.698760   -0.268508
      2          6           0       -5.052075    0.760950   -0.266336
      3          1           0       -5.668486   -0.160235   -0.298504
      4          6           0       -5.814356    2.018657   -0.222416
      5          1           0       -5.234122    2.933451   -0.190470
      6          6           0       -7.139552    2.013936   -0.222581
      7          1           0       -7.695284    1.082944   -0.255092
      8          1           0       -7.718408    2.927223   -0.190688
 ---------------------------------------------------------------------
                    Distance matrix (angstroms):
                    1          2          3          4          5
     1  O    0.000000
     2  C    1.203585   0.000000
     3  H    2.011293   1.108863   0.000000
     4  C    2.366971   1.471336   2.185094   0.000000
     5  H    2.629724   2.181434   3.125897   1.083762   0.000000
     6  C    3.542921   2.435046   2.626179   1.325204   2.115940
     7  H    3.864351   2.662772   2.378085   2.101074   3.079913
     8  H    4.464964   3.436247   3.707587   2.109956   2.484294
                    6          7          8
     6  C    0.000000
     7  H    1.084730   0.000000
     8  H    1.081751   1.845548   0.000000
 Symmetry turned off by external request.
 Stoichiometry    C3H4O
 Framework group  CS[SG(C3H4O)]
 Deg. of freedom    13
 Full point group                 CS      NOp   2
 Rotational constants (GHZ):          48.3119741           4.6964412           4.2803457
 Electric field and nuclear coordinate derivatives read from checkpoint file.
 Full mass-weighted force constant matrix:
 Low frequencies ---    0.0008    0.0010    0.0012    0.6178    4.6767   12.8190
 Low frequencies ---  165.8740  327.6489  581.6238
 Diagonal vibrational polarizability:
        3.0053757       4.4480167       7.6985667
 Harmonic frequencies (cm**-1), IR intensities (KM/Mole), Raman scattering
 activities (A**4/AMU), depolarization ratios for plane and unpolarized
 incident light, reduced masses (AMU), force constants (mDyne/A),
 and normal coordinates:
                      1                      2                      3
                      A                      A                      A
 Frequencies --    165.8723               327.6489               581.6238
 Red. masses --      3.3889                 2.6742                 4.9234
 Frc consts  --      0.0549                 0.1691                 0.9813
 IR Inten    --      5.1549                10.9306                 5.3973
  Atom  AN      X      Y      Z        X      Y      Z        X      Y      Z
     1   8    -0.00  -0.01   0.22    -0.05  -0.16  -0.01    -0.24   0.24   0.01
     2   6     0.00   0.01  -0.24    -0.02   0.17   0.01    -0.23  -0.10  -0.00
     3   1     0.00   0.02  -0.62    -0.24   0.31   0.01    -0.16  -0.14  -0.00
     4   6     0.00   0.01  -0.23     0.05   0.22   0.01     0.21  -0.06  -0.00
     5   1     0.00   0.01  -0.35    -0.11   0.32   0.01     0.49  -0.24  -0.01
     6   6    -0.00  -0.01   0.19     0.05  -0.17  -0.01     0.27  -0.10  -0.00
     7   1    -0.00  -0.01   0.37     0.42  -0.39  -0.01     0.49  -0.23  -0.01
     8   1    -0.00  -0.01   0.41    -0.31  -0.40  -0.01     0.09  -0.22  -0.01
                      4                      5                      6
                      A                      A                      A
 Frequencies --    618.3021               933.5285              1019.2929
 Red. masses --      1.1858                 1.5861                 1.2945
 Frc consts  --      0.2671                 0.8144                 0.7924
 IR Inten    --     12.1809                25.2341                59.3151
  Atom  AN      X      Y      Z        X      Y      Z        X      Y      Z
     1   8    -0.00  -0.00   0.00    -0.04  -0.01  -0.00     0.00   0.00  -0.02
     2   6    -0.00  -0.00   0.03    -0.02   0.15   0.01    -0.00  -0.00   0.08
     3   1    -0.00  -0.02   0.44    -0.15   0.24   0.01     0.00   0.01  -0.32
     4   6     0.00   0.00  -0.12     0.03  -0.09  -0.00     0.00   0.00  -0.02
     5   1    -0.00  -0.01   0.35    -0.26   0.09   0.00    -0.00  -0.01   0.32
     6   6    -0.00  -0.00   0.02     0.06  -0.12  -0.00     0.00   0.00  -0.13
     7   1     0.00   0.02  -0.49    -0.49   0.22   0.01    -0.00  -0.02   0.71
     8   1    -0.00  -0.02   0.65     0.66   0.26   0.01    -0.00  -0.02   0.52
                      7                      8                      9
                      A                      A                      A
 Frequencies --   1041.1083              1045.0512              1185.6926
 Red. masses --      1.3736                 1.4135                 2.0067
 Frc consts  --      0.8772                 0.9095                 1.6622
 IR Inten    --      1.8281                 8.9786                37.9511
  Atom  AN      X      Y      Z        X      Y      Z        X      Y      Z
     1   8     0.00   0.00  -0.02    -0.00  -0.00   0.04     0.01  -0.04  -0.00
     2   6    -0.00  -0.00   0.07     0.00   0.01  -0.18     0.00   0.22   0.01
     3   1     0.00   0.01  -0.25    -0.00  -0.03   0.73    -0.06   0.27   0.01
     4   6     0.00   0.00  -0.14    -0.00  -0.00   0.04    -0.01  -0.19  -0.01
     5   1    -0.00  -0.03   0.75    -0.00  -0.01   0.42     0.59  -0.57  -0.02
     6   6    -0.00  -0.00   0.10     0.00   0.00  -0.03    -0.04   0.06   0.00
     7   1    -0.00  -0.00   0.03    -0.00  -0.02   0.48     0.23  -0.11  -0.00
     8   1     0.00   0.02  -0.58     0.00   0.01  -0.18    -0.28  -0.10  -0.00
                     10                     11                     12
                      A                      A                      A
 Frequencies --   1313.4077              1408.4586              1469.9686
 Red. masses --      1.4584                 1.1792                 1.2082
 Frc consts  --      1.4822                 1.3782                 1.5381
 IR Inten    --      2.7152                 7.1941                13.7975
  Atom  AN      X      Y      Z        X      Y      Z        X      Y      Z
     1   8     0.01  -0.00  -0.00    -0.05  -0.04  -0.00     0.05   0.02   0.00
     2   6    -0.01  -0.02  -0.00    -0.01   0.07   0.00     0.00  -0.05  -0.00
     3   1     0.09  -0.08  -0.00     0.74  -0.41  -0.01    -0.46   0.22   0.01
     4   6     0.03   0.15   0.01    -0.07   0.03   0.00    -0.09   0.04   0.00
     5   1     0.76  -0.29  -0.01     0.05  -0.05  -0.00     0.17  -0.13  -0.00
     6   6    -0.08  -0.11  -0.00     0.02  -0.01  -0.00    -0.03  -0.02  -0.00
     7   1    -0.50   0.14   0.01     0.30  -0.16  -0.01     0.46  -0.30  -0.01
     8   1     0.10   0.02   0.00     0.34   0.18   0.01     0.53   0.32   0.01
                     13                     14                     15
                      A                      A                      A
 Frequencies --   1719.6077              1825.3644              2922.6547
 Red. masses --      4.5242                 9.9133                 1.0841
 Frc consts  --      7.8822                19.4611                 5.4559
 IR Inten    --      1.8215               267.9462                82.8608
  Atom  AN      X      Y      Z        X      Y      Z        X      Y      Z
     1   8    -0.08   0.01   0.00    -0.47   0.03   0.00    -0.00   0.00   0.00
     2   6     0.05   0.01   0.00     0.70  -0.08  -0.00    -0.04  -0.07  -0.00
     3   1     0.14  -0.04  -0.00    -0.17   0.40   0.01     0.53   0.84   0.03
     4   6     0.40  -0.06  -0.00    -0.12   0.02   0.00    -0.00   0.00   0.00
     5   1    -0.14   0.34   0.01     0.21  -0.17  -0.01    -0.01  -0.01  -0.00
     6   6    -0.38   0.01   0.00     0.05   0.01   0.00     0.00   0.00   0.00
     7   1     0.31  -0.45  -0.02    -0.05   0.06   0.00     0.00  -0.01  -0.00
     8   1     0.20   0.44   0.02    -0.02  -0.04  -0.00     0.00   0.00   0.00
                     16                     17                     18
                      A                      A                      A
 Frequencies --   3158.9613              3201.8109              3251.7539
 Red. masses --      1.0611                 1.0950                 1.1154
 Frc consts  --      6.2389                 6.6136                 6.9489
 IR Inten    --      3.6728                 0.8254                 3.4212
  Atom  AN      X      Y      Z        X      Y      Z        X      Y      Z
     1   8    -0.00   0.00   0.00     0.00  -0.00  -0.00     0.00   0.00   0.00
     2   6     0.00  -0.00  -0.00    -0.00   0.00   0.00    -0.00   0.00   0.00
     3   1     0.00   0.01   0.00     0.00   0.01   0.00    -0.00   0.01   0.00
     4   6     0.00  -0.01  -0.00    -0.05  -0.07  -0.00    -0.01  -0.01  -0.00
     5   1     0.05   0.09   0.00     0.52   0.83   0.03     0.09   0.14   0.01
     6   6    -0.07  -0.02  -0.00     0.01   0.02   0.00     0.02  -0.10  -0.00
     7   1     0.41   0.70   0.02    -0.09  -0.15  -0.01     0.28   0.46   0.02
     8   1     0.29  -0.48  -0.02     0.05  -0.07  -0.00    -0.44   0.69   0.02

 -------------------
 - Thermochemistry -
 -------------------
 Temperature   298.150 Kelvin.  Pressure   1.00000 Atm.
 Atom     1 has atomic number  8 and mass  15.99491
 Atom     2 has atomic number  6 and mass  12.00000
 Atom     3 has atomic number  1 and mass   1.00783
 Atom     4 has atomic number  6 and mass  12.00000
 Atom     5 has atomic number  1 and mass   1.00783
 Atom     6 has atomic number  6 and mass  12.00000
 Atom     7 has atomic number  1 and mass   1.00783
 Atom     8 has atomic number  1 and mass   1.00783
 Molecular mass:    56.02621 amu.
 Principal axes and moments of inertia in atomic units:
                           1         2         3
     Eigenvalues --    37.35598 384.27847 421.63445
           X            0.89930   0.43734  -0.00000
           Y           -0.43708   0.89875  -0.03490
           Z           -0.01526   0.03138   0.99939
 This molecule is an asymmetric top.
 Rotational symmetry number  1.
 Rotational temperatures (Kelvin)      2.31861     0.22539     0.20542
 Rotational constants (GHZ):          48.31197     4.69644     4.28035
 Zero-point vibrational energy     162633.0 (Joules/Mol)
                                   38.87021 (Kcal/Mol)
 Warning -- explicit consideration of   4 degrees of freedom as
           vibrations may cause significant error
 Vibrational temperatures:    238.65   471.41   836.83   889.60  1343.14
          (Kelvin)           1466.54  1497.92  1503.60  1705.95  1889.70
                             2026.46  2114.96  2474.13  2626.29  4205.05
                             4545.04  4606.69  4678.55
 
 Zero-point correction=                           0.061944 (Hartree/Particle)
 Thermal correction to Energy=                    0.066288
 Thermal correction to Enthalpy=                  0.067232
 Thermal correction to Gibbs Free Energy=         0.035665
 Sum of electronic and zero-point Energies=           -191.826470
 Sum of electronic and thermal Energies=              -191.822126
 Sum of electronic and thermal Enthalpies=            -191.821182
 Sum of electronic and thermal Free Energies=         -191.852749
 
                     E (Thermal)             CV                S
                      KCal/Mol        Cal/Mol-Kelvin    Cal/Mol-Kelvin
 Total                   41.596             13.607             66.439
 Electronic               0.000              0.000              0.000
 Translational            0.889              2.981             37.991
 Rotational               0.889              2.981             23.319
 Vibrational             39.819              7.646              5.129
 Vibration     1          0.624              1.884              2.482
 Vibration     2          0.711              1.620              1.272
 Vibration     3          0.938              1.071              0.482
 Vibration     4          0.978              0.993              0.419
                       Q            Log10(Q)             Ln(Q)
 Total Bot       0.393818D-16        -16.404705        -37.773228
 Total V=0       0.122281D+13         12.087360         27.832175
 Vib (Bot)       0.857902D-28        -28.066562        -64.625648
 Vib (Bot)    1  0.121656D+01          0.085135          0.196030
 Vib (Bot)    2  0.571085D+00         -0.243299         -0.560217
 Vib (Bot)    3  0.261568D+00         -0.582416         -1.341062
 Vib (Bot)    4  0.236943D+00         -0.625356         -1.439935
 Vib (V=0)       0.266380D+01          0.425502          0.979755
 Vib (V=0)    1  0.181530D+01          0.258949          0.596253
 Vib (V=0)    2  0.125904D+01          0.100039          0.230348
 Vib (V=0)    3  0.106429D+01          0.027058          0.062303
 Vib (V=0)    4  0.105330D+01          0.022553          0.051929
 Electronic      0.100000D+01          0.000000          0.000000
 Translational   0.164832D+08          7.217041         16.617851
 Rotational      0.278495D+05          4.444817         10.234569
 -------------------------------------------------------------------
 Center     Atomic                   Forces (Hartrees/Bohr)
 Number     Number              X              Y              Z
 -------------------------------------------------------------------
      1        8           0.000006277   -0.000021233   -0.000000741
      2        6          -0.000119227   -0.000061357   -0.000002143
      3        1           0.000058922    0.000083933    0.000002931
      4        6           0.000103232    0.000062928    0.000002197
      5        1          -0.000048363   -0.000030375   -0.000001061
      6        6           0.000011059   -0.000045567   -0.000001591
      7        1           0.000007138    0.000010281    0.000000359
      8        1          -0.000019038    0.000001391    0.000000049
 -------------------------------------------------------------------
 Cartesian Forces:  Max     0.000119227 RMS     0.000045464
 FormGI is forming the generalized inverse of G from B-inverse, IUseBI=4.

 **********************************************************************

             Generation of the Franck-Condon spectrum

 **********************************************************************


     ==================================================
            Parameters for vibronic calculations
     ==================================================
 

 Using the following non-standard input for vibronic spectroscopy:
 SpecHwHm=500 SpecRes=20 InpDEner=0.118
 --- end of non-standard input.

     ==================================================
               Information on the Simulation
     ==================================================

 General framework: TIME-INDEPENDENT
 Spectroscopy: ONE-PHOTON ABSORPTION
 Model for to the transition: ADIABATIC HESSIAN
 Approx. of the electronic transition moment(s): FC
 Temperature effect are not taken into account.

     ==================================================
                  Treatment of Input Data
     ==================================================

 Initial State
 -------------
 Data taken from current calculation.
 Normal modes recovered from file.

 Final State
 -----------
 Data taken from checkpoint file "/rds/general/user/rk820/home/dibs-g16/fc_ht/exercise_8-7/Acrolein_TD.chk"
 Normal modes recovered from file.
 No electronic transition dipole moment has been found.
 A fully-allowed transition is assumed for FC calculations.

     ==================================================
                  Superposition Procedure
     ==================================================

 Initial state structure is set in Eckart orientation.
 Final state structure is superposed to it.

              New orientation in initial state              
 ---------------------------------------------------------------------
 Center     Atomic                     Coordinates (Angstroms)
 Number     Number                        X           Y           Z
 ---------------------------------------------------------------------
      1          8                    1.704262    0.106185   -0.000000
      2          6                    0.596117   -0.363528   -0.000000
      3          1                    0.444901   -1.462033    0.000000
      4          6                   -0.639783    0.434833   -0.000000
      5          1                   -0.518303    1.511765   -0.000000
      6          6                   -1.829459   -0.148980   -0.000000
      7          1                   -1.921815   -1.229771   -0.000000
      8          1                   -2.749684    0.419677   -0.000000
 ---------------------------------------------------------------------
               New orientation in final state               
 ---------------------------------------------------------------------
 Center     Atomic                     Coordinates (Angstroms)
 Number     Number                        X           Y           Z
 ---------------------------------------------------------------------
      1          8                    1.711749    0.107202   -0.000000
      2          6                    0.597311   -0.363680    0.000000
      3          1                    0.444188   -1.463812    0.000000
      4          6                   -0.640178    0.433857   -0.000000
      5          1                   -0.520095    1.511854   -0.000000
      6          6                   -1.838234   -0.149240    0.000000
      7          1                   -1.935295   -1.230258    0.000000
      8          1                   -2.757545    0.422235    0.000000
 ---------------------------------------------------------------------

     ==================================================
                 Duschinsky Transformation
     ==================================================

     ==================================================
              Calculations of Band Intensities
     ==================================================
 ERROR: The total intensity calculated using the analytic sum rules is
null.
 Error termination via Lnk1e in /apps/gaussian/g16-c01-avx2/g16/l718.exe at Wed Feb 21 11:41:51 2024.
 Job cpu time:       0 days  0 hours  0 minutes 27.8 seconds.
 Elapsed time:       0 days  0 hours  0 minutes  1.1 seconds.
 File lengths (MBytes):  RWF=      6 Int=      0 D2E=      0 Chk=     16 Scr=      1
