 Entering Gaussian System, Link 0=g16
 Input=Acrolein_TD.gjf
 Output=Acrolein_TD.log
 Initial command:
 /apps/gaussian/g16-c01-avx2/g16/l1.exe "/var/tmp/pbs.8908838.pbs/Gau-761814.inp" -scrdir="/var/tmp/pbs.8908838.pbs/"
 Entering Link 1 = /apps/gaussian/g16-c01-avx2/g16/l1.exe PID=    761815.
  
 Copyright (c) 1988-2019, Gaussian, Inc.  All Rights Reserved.
  
 This is part of the Gaussian(R) 16 program.  It is based on
 the Gaussian(R) 09 system (copyright 2009, Gaussian, Inc.),
 the Gaussian(R) 03 system (copyright 2003, Gaussian, Inc.),
 the Gaussian(R) 98 system (copyright 1998, Gaussian, Inc.),
 the Gaussian(R) 94 system (copyright 1995, Gaussian, Inc.),
 the Gaussian 92(TM) system (copyright 1992, Gaussian, Inc.),
 the Gaussian 90(TM) system (copyright 1990, Gaussian, Inc.),
 the Gaussian 88(TM) system (copyright 1988, Gaussian, Inc.),
 the Gaussian 86(TM) system (copyright 1986, Carnegie Mellon
 University), and the Gaussian 82(TM) system (copyright 1983,
 Carnegie Mellon University). Gaussian is a federally registered
 trademark of Gaussian, Inc.
  
 This software contains proprietary and confidential information,
 including trade secrets, belonging to Gaussian, Inc.
  
 This software is provided under written license and may be
 used, copied, transmitted, or stored only in accord with that
 written license.
  
 The following legend is applicable only to US Government
 contracts under FAR:
  
                    RESTRICTED RIGHTS LEGEND
  
 Use, reproduction and disclosure by the US Government is
 subject to restrictions as set forth in subparagraphs (a)
 and (c) of the Commercial Computer Software - Restricted
 Rights clause in FAR 52.227-19.
  
 Gaussian, Inc.
 340 Quinnipiac St., Bldg. 40, Wallingford CT 06492
  
  
 ---------------------------------------------------------------
 Warning -- This program may not be used in any manner that
 competes with the business of Gaussian, Inc. or will provide
 assistance to any competitor of Gaussian, Inc.  The licensee
 of this program is prohibited from giving any competitor of
 Gaussian, Inc. access to this program.  By using this program,
 the user acknowledges that Gaussian, Inc. is engaged in the
 business of creating and licensing software in the field of
 computational chemistry and represents and warrants to the
 licensee that it is not a competitor of Gaussian, Inc. and that
 it will not use this program in any manner prohibited above.
 ---------------------------------------------------------------
  

 Cite this work as:
 Gaussian 16, Revision C.01,
 M. J. Frisch, G. W. Trucks, H. B. Schlegel, G. E. Scuseria, 
 M. A. Robb, J. R. Cheeseman, G. Scalmani, V. Barone, 
 G. A. Petersson, H. Nakatsuji, X. Li, M. Caricato, A. V. Marenich, 
 J. Bloino, B. G. Janesko, R. Gomperts, B. Mennucci, H. P. Hratchian, 
 J. V. Ortiz, A. F. Izmaylov, J. L. Sonnenberg, D. Williams-Young, 
 F. Ding, F. Lipparini, F. Egidi, J. Goings, B. Peng, A. Petrone, 
 T. Henderson, D. Ranasinghe, V. G. Zakrzewski, J. Gao, N. Rega, 
 G. Zheng, W. Liang, M. Hada, M. Ehara, K. Toyota, R. Fukuda, 
 J. Hasegawa, M. Ishida, T. Nakajima, Y. Honda, O. Kitao, H. Nakai, 
 T. Vreven, K. Throssell, J. A. Montgomery, Jr., J. E. Peralta, 
 F. Ogliaro, M. J. Bearpark, J. J. Heyd, E. N. Brothers, K. N. Kudin, 
 V. N. Staroverov, T. A. Keith, R. Kobayashi, J. Normand, 
 K. Raghavachari, A. P. Rendell, J. C. Burant, S. S. Iyengar, 
 J. Tomasi, M. Cossi, J. M. Millam, M. Klene, C. Adamo, R. Cammi, 
 J. W. Ochterski, R. L. Martin, K. Morokuma, O. Farkas, 
 J. B. Foresman, and D. J. Fox, Gaussian, Inc., Wallingford CT, 2019.
 
 ******************************************
 Gaussian 16:  ES64L-G16RevC.01  3-Jul-2019
                11-Feb-2024 
 ******************************************
 %oldchk=/rds/general/user/rk820/home/dibs-g16/fc_ht/exercise_8-7/Acrolein_gs.chk
 %chk=/rds/general/user/rk820/home/dibs-g16/fc_ht/exercise_8-7/Acrolein_TD.chk
 %NProcShared=32
 Will use up to   32 processors via shared memory.
 %Mem=110GB
 Copying data from "/rds/general/user/rk820/home/dibs-g16/fc_ht/exercise_8-7/Acrolein_gs.chk" to current chk file "/rds/general/user/rk820/home/dibs-g16/fc_ht/exercise_8-7/Acrolein_TD.chk"
 IOpt=  2 FromEx=T IUOpen= 4 IOptOp= 5 NList=   0 IFRang= 0 IUIn= 4 IUOut= 2.
 ------------------------------------------
 # cam-b3lyp/tzvp td=(nstates=5) geom=check
 ------------------------------------------
 1/29=2,38=1,172=1/1;
 2/12=2,40=1/2;
 3/5=19,7=101,11=9,14=-4,25=1,30=1,74=-40/1,2,3,8;
 4//1;
 5/5=2,38=5/2;
 8/6=1,10=1,108=5/1;
 9/41=5,42=1,70=2/14;
 6/7=2,8=2,9=2,10=2/1;
 99/5=1,9=1/99;
 ---------------------------------------------------------------
 TD-DFT for Acrolein, calculating the first five excited states.
 ---------------------------------------------------------------
 Structure from the checkpoint file:  "/rds/general/user/rk820/home/dibs-g16/fc_ht/exercise_8-7/Acrolein_TD.chk"
 Charge =  0 Multiplicity = 1
 Redundant internal coordinates found in file.  (old form).
 O,0,-3.839649328,0.6964693981,-0.268587595
 C,0,-5.0478350543,0.7595851661,-0.2663835439
 H,0,-5.6660810728,-0.1626257286,-0.2985878575
 C,0,-5.8127131761,2.0167557246,-0.2224821812
 H,0,-5.2338570817,2.9334885295,-0.1904691667
 C,0,-7.1451318388,2.015487204,-0.222526479
 H,0,-7.7045967193,1.0859891016,-0.2549852675
 H,0,-7.7225201689,2.930536995,-0.1905722367
 Recover connectivity data from disk.
                           ----------------------------
                           !    Current Parameters    !
                           ! (Angstroms and Degrees)  !
 --------------------------                            --------------------------
 ! Name  Definition              Value                                          !
 --------------------------------------------------------------------------------
 ! R1    R(1,2)                  1.2098                                         !
 ! R2    R(2,3)                  1.1107                                         !
 ! R3    R(2,4)                  1.4722                                         !
 ! R4    R(4,5)                  1.0847                                         !
 ! R5    R(4,6)                  1.3324                                         !
 ! R6    R(6,7)                  1.0854                                         !
 ! R7    R(6,8)                  1.0825                                         !
 ! A1    A(1,2,3)              120.8293                                         !
 ! A2    A(1,2,4)              124.2936                                         !
 ! A3    A(3,2,4)              114.8771                                         !
 ! A4    A(2,4,5)              116.4447                                         !
 ! A5    A(2,4,6)              121.2468                                         !
 ! A6    A(5,4,6)              122.3085                                         !
 ! A7    A(4,6,7)              121.0829                                         !
 ! A8    A(4,6,8)              122.1812                                         !
 ! A9    A(7,6,8)              116.7359                                         !
 ! D1    D(1,2,4,5)              0.0                                            !
 ! D2    D(1,2,4,6)            180.0                                            !
 ! D3    D(3,2,4,5)            180.0                                            !
 ! D4    D(3,2,4,6)              0.0                                            !
 ! D5    D(2,4,6,7)              0.0                                            !
 ! D6    D(2,4,6,8)            180.0                                            !
 ! D7    D(5,4,6,7)            180.0                                            !
 ! D8    D(5,4,6,8)              0.0                                            !
 --------------------------------------------------------------------------------
                          Input orientation:                          
 ---------------------------------------------------------------------
 Center     Atomic      Atomic             Coordinates (Angstroms)
 Number     Number       Type             X           Y           Z
 ---------------------------------------------------------------------
      1          8           0       -3.839649    0.696469   -0.268588
      2          6           0       -5.047835    0.759585   -0.266384
      3          1           0       -5.666081   -0.162626   -0.298588
      4          6           0       -5.812713    2.016756   -0.222482
      5          1           0       -5.233857    2.933489   -0.190469
      6          6           0       -7.145132    2.015487   -0.222526
      7          1           0       -7.704597    1.085989   -0.254985
      8          1           0       -7.722520    2.930537   -0.190572
 ---------------------------------------------------------------------
                    Distance matrix (angstroms):
                    1          2          3          4          5
     1  O    0.000000
     2  C    1.209835   0.000000
     3  H    2.018613   1.110738   0.000000
     4  C    2.374503   1.472224   2.185634   0.000000
     5  H    2.637076   2.183168   3.128007   1.084665   0.000000
     6  C    3.559234   2.444968   2.633923   1.332419   2.120548
     7  H    3.884550   2.676761   2.390917   2.108698   3.085769
     8  H    4.480383   3.445681   3.715947   2.117399   2.488665
                    6          7          8
     6  C    0.000000
     7  H    1.085367   0.000000
     8  H    1.082458   1.845759   0.000000
 Stoichiometry    C3H4O
 Framework group  CS[SG(C3H4O)]
 Deg. of freedom    13
 Full point group                 CS      NOp   2
 Largest Abelian subgroup         CS      NOp   2
 Largest concise Abelian subgroup C1      NOp   1
                         Standard orientation:                         
 ---------------------------------------------------------------------
 Center     Atomic      Atomic             Coordinates (Angstroms)
 Number     Number       Type             X           Y           Z
 ---------------------------------------------------------------------
      1          8           0       -1.208031   -1.326934   -0.000000
      2          6           0       -0.145884   -0.747671   -0.000000
      3          1           0        0.810530   -1.312480   -0.000000
      4          6           0       -0.000000    0.717307    0.000000
      5          1           0       -0.918526    1.294203    0.000000
      6          6           0        1.202021    1.292186    0.000000
      7          1           0        2.108584    0.695390    0.000000
      8          1           0        1.326836    2.367424    0.000000
 ---------------------------------------------------------------------
 Rotational constants (GHZ):          48.2916735           4.6568086           4.2472432
 Standard basis: TZVP (5D, 7F)
 There are    80 symmetry adapted cartesian basis functions of A'  symmetry.
 There are    24 symmetry adapted cartesian basis functions of A"  symmetry.
 There are    76 symmetry adapted basis functions of A'  symmetry.
 There are    24 symmetry adapted basis functions of A"  symmetry.
   100 basis functions,   172 primitive gaussians,   104 cartesian basis functions
    15 alpha electrons       15 beta electrons
       nuclear repulsion energy       103.1656705328 Hartrees.
 NAtoms=    8 NActive=    8 NUniq=    8 SFac= 1.00D+00 NAtFMM=   60 NAOKFM=F Big=F
 Integral buffers will be    131072 words long.
 Raffenetti 1 integral format.
 Two-electron integral symmetry is turned on.
 One-electron integrals computed using PRISM.
 NBasis=   100 RedAO= T EigKep=  3.72D-04  NBF=    76    24
 NBsUse=   100 1.00D-06 EigRej= -1.00D+00 NBFU=    76    24
 ExpMin= 9.52D-02 ExpMax= 2.70D+04 ExpMxC= 9.22D+02 IAcc=3 IRadAn=         5 AccDes= 0.00D+00
 Harris functional with IExCor=20419 and IRadAn=       5 diagonalized for initial guess.
 HarFok:  IExCor=20419 AccDes= 0.00D+00 IRadAn=         5 IDoV= 1 UseB2=F ITyADJ=14
 ICtDFT=  3500011 ScaDFX=  1.000000  1.000000  1.000000  1.000000
 FoFCou: FMM=F IPFlag=           0 FMFlag=      100000 FMFlg1=           0
         NFxFlg=           0 DoJE=T BraDBF=F KetDBF=T FulRan=T
         wScrn=  0.000000 ICntrl=       500 IOpCl=  0 I1Cent=   200000004 NGrid=           0
         NMat0=    1 NMatS0=      1 NMatT0=    0 NMatD0=    1 NMtDS0=    0 NMtDT0=    0
 Petite list used in FoFCou.
 Initial guess orbital symmetries:
       Occupied  (A') (A') (A') (A') (A') (A') (A') (A') (A') (A')
                 (A') (A') (A") (A") (A')
       Virtual   (A") (A") (A') (A') (A') (A') (A') (A') (A") (A')
                 (A') (A") (A') (A") (A') (A') (A') (A') (A') (A')
                 (A') (A') (A') (A") (A') (A') (A') (A') (A') (A')
                 (A") (A") (A') (A") (A') (A') (A') (A") (A") (A")
                 (A') (A') (A') (A") (A') (A') (A') (A') (A') (A")
                 (A') (A") (A') (A") (A') (A") (A') (A') (A") (A')
                 (A') (A') (A") (A') (A") (A') (A') (A') (A") (A')
                 (A') (A') (A') (A') (A') (A') (A") (A') (A') (A')
                 (A') (A') (A') (A') (A')
 The electronic state of the initial guess is 1-A'.
 Keep R1 ints in memory in symmetry-blocked form, NReq=55822198.
 Requested convergence on RMS density matrix=1.00D-08 within 128 cycles.
 Requested convergence on MAX density matrix=1.00D-06.
 Requested convergence on             energy=1.00D-06.
 No special actions if energy rises.
 Integral accuracy reduced to 1.0D-05 until final iterations.
 Initial convergence to 1.0D-05 achieved.  Increase integral accuracy.
 SCF Done:  E(RCAM-B3LYP) =  -191.888278987     A.U. after   14 cycles
            NFock= 14  Conv=0.27D-08     -V/T= 2.0042
 DoSCS=F DFT=T ScalE2(SS,OS)=  1.000000  1.000000
 ExpMin= 9.52D-02 ExpMax= 2.70D+04 ExpMxC= 9.22D+02 IAcc=3 IRadAn=         5 AccDes= 0.00D+00
 HarFok:  IExCor=  205 AccDes= 0.00D+00 IRadAn=         5 IDoV=-2 UseB2=F ITyADJ=14
 ICtDFT= 12500011 ScaDFX=  1.000000  1.000000  1.000000  1.000000
 Range of M.O.s used for correlation:     5   100
 NBasis=   100 NAE=    15 NBE=    15 NFC=     4 NFV=     0
 NROrb=     96 NOA=    11 NOB=    11 NVA=    85 NVB=    85

 **** Warning!!: The largest alpha MO coefficient is  0.13448175D+02

 Keep R1, R2, and R3 ints in memory in symmetry-blocked form, NReq=85002026.
 Orbital symmetries:
       Occupied  (A') (A') (A') (A') (A') (A') (A') (A') (A') (A')
                 (A') (A") (A') (A") (A')
       Virtual   (A") (A") (A') (A') (A') (A') (A') (A') (A") (A')
                 (A') (A") (A') (A") (A') (A') (A') (A') (A') (A')
                 (A') (A') (A') (A") (A') (A') (A') (A') (A') (A")
                 (A') (A") (A") (A') (A') (A') (A") (A') (A") (A')
                 (A") (A') (A') (A") (A') (A') (A') (A') (A') (A")
                 (A') (A") (A') (A") (A") (A') (A') (A') (A") (A')
                 (A') (A') (A") (A') (A') (A") (A') (A') (A") (A')
                 (A') (A') (A') (A') (A') (A') (A") (A') (A') (A')
                 (A') (A') (A') (A') (A')
    20 initial guesses have been made.
 Convergence on wavefunction:    0.001000000000000
 Iteration     1 Dimension    20 NMult     0 NNew     20
 CISAX will form    20 AO SS matrices at one time.
 New state      2 was old state      3
 New state      3 was old state      2
 New state      4 was old state      6
 New state      5 was old state     11
 Iteration     2 Dimension    30 NMult    20 NNew     10
 New state      2 was old state      3
 New state      3 was old state      2
 Iteration     3 Dimension    40 NMult    30 NNew     10
 Iteration     4 Dimension    50 NMult    40 NNew     10
 Iteration     5 Dimension    58 NMult    50 NNew      8
 ***********************************************************************
 Excited states from <AA,BB:AA,BB> singles matrix:
 ***********************************************************************
 
 Ground to excited state transition densities written to RWF  633
 Ground to excited state transition electric dipole moments (Au):
       state          X           Y           Z        Dip. S.      Osc.
         1        -0.0000     -0.0000     -0.0506      0.0026      0.0002
         2        -1.1478     -1.1871      0.0000      2.7267      0.4341
         3        -0.0000     -0.0000     -0.0114      0.0001      0.0000
         4        -0.0000     -0.0000      0.0586      0.0034      0.0007
         5         0.0000      0.0000      0.1155      0.0133      0.0027
 Ground to excited state transition velocity dipole moments (Au):
       state          X           Y           Z        Dip. S.      Osc.
         1         0.0000      0.0000      0.0034      0.0000      0.0001
         2         0.2624      0.2604     -0.0000      0.1367      0.3816
         3         0.0000      0.0000      0.0052      0.0000      0.0001
         4         0.0000      0.0000     -0.0207      0.0004      0.0010
         5        -0.0000     -0.0000     -0.0397      0.0016      0.0034
 Ground to excited state transition magnetic dipole moments (Au):
       state          X           Y           Z
         1        -0.7200     -0.5532     -0.0000
         2         0.0000      0.0000     -0.1838
         3        -1.0984     -0.5345     -0.0000
         4        -0.1371     -0.6809     -0.0000
         5         0.0262     -0.3977     -0.0000
 Ground to excited state transition velocity quadrupole moments (Au):
       state          XX          YY          ZZ          XY          XZ          YZ
         1         0.0000     -0.0000     -0.0000     -0.0000      0.0336     -0.0430
         2         0.2743      0.2190      0.0638      0.3783     -0.0000      0.0000
         3         0.0000      0.0000      0.0000      0.0000      0.0918     -0.1715
         4         0.0000      0.0000      0.0000      0.0000      0.1130     -0.0352
         5        -0.0000     -0.0000     -0.0000     -0.0000      0.1041      0.0384
 <0|del|b> * <b|rxdel|0> + <0|del|b> * <b|delr+rdel|0>
 Rotatory Strengths (R) in cgs (10**-40 erg-esu-cm/Gauss)
       state          XX          YY          ZZ    R(velocity)    E-M Angle
         1        -0.0000     -0.0000     -0.0000     -0.0000       90.00
         2         0.0000      0.0000      0.0000      0.0000       90.00
         3        -0.0000     -0.0000     -0.0000     -0.0000       90.00
         4        -0.0000     -0.0000     -0.0000     -0.0000       90.00
         5         0.0000     -0.0000      0.0000      0.0000       90.00
 1/2[<0|r|b>*<b|rxdel|0> + (<0|rxdel|b>*<b|r|0>)*]
 Rotatory Strengths (R) in cgs (10**-40 erg-esu-cm/Gauss)
       state          XX          YY          ZZ     R(length)
         1        -0.0000     -0.0000     -0.0000     -0.0000
         2         0.0000      0.0000      0.0000      0.0000
         3        -0.0000     -0.0000     -0.0000     -0.0000
         4        -0.0000     -0.0000      0.0000     -0.0000
         5        -0.0000      0.0000      0.0000      0.0000
  1/2[<0|del|b>*<b|r|0> + (<0|r|b>*<b|del|0>)*] (Au)
       state          X           Y           Z        Dip. S.   Osc.(frdel)
         1        -0.0000     -0.0000     -0.0002      0.0002      0.0001
         2        -0.3012     -0.3091     -0.0000      0.6103      0.4069
         3        -0.0000     -0.0000     -0.0001      0.0001      0.0000
         4        -0.0000     -0.0000     -0.0012      0.0012      0.0008
         5        -0.0000     -0.0000     -0.0046      0.0046      0.0031

 Excitation energies and oscillator strengths:
 
 Excited State   1:      Singlet-A"     3.7992 eV  326.34 nm  f=0.0002  <S**2>=0.000
      15 -> 16         0.68154
      15 -> 17         0.18049
 This state for optimization and/or second-order correction.
 Total Energy, E(TD-HF/TD-DFT) =  -191.748659767    
 Copying the excited state density for this state as the 1-particle RhoCI density.
 
 Excited State   2:      Singlet-A'     6.4982 eV  190.80 nm  f=0.4341  <S**2>=0.000
      14 -> 16         0.69301
 
 Excited State   3:      Singlet-A"     7.2409 eV  171.23 nm  f=0.0000  <S**2>=0.000
      13 -> 16         0.29983
      15 -> 16        -0.16812
      15 -> 17         0.60776
 
 Excited State   4:      Singlet-A"     7.7783 eV  159.40 nm  f=0.0007  <S**2>=0.000
      13 -> 16         0.62858
      15 -> 17        -0.28806
 
 Excited State   5:      Singlet-A"     8.3920 eV  147.74 nm  f=0.0027  <S**2>=0.000
      10 -> 17         0.10145
      11 -> 16         0.68709
 SavETr:  write IOETrn=   770 NScale= 10 NData=  16 NLR=1 NState=    5 LETran=     100.

 **********************************************************************

            Population analysis using the SCF Density.

 **********************************************************************

 Orbital symmetries:
       Occupied  (A') (A') (A') (A') (A') (A') (A') (A') (A') (A')
                 (A') (A") (A') (A") (A')
       Virtual   (A") (A") (A') (A') (A') (A') (A') (A') (A") (A')
                 (A') (A") (A') (A") (A') (A') (A') (A') (A') (A')
                 (A') (A') (A') (A") (A') (A') (A') (A') (A') (A")
                 (A') (A") (A") (A') (A') (A') (A") (A') (A") (A')
                 (A") (A') (A') (A") (A') (A') (A') (A') (A') (A")
                 (A') (A") (A') (A") (A") (A') (A') (A') (A") (A')
                 (A') (A') (A") (A') (A') (A") (A') (A') (A") (A')
                 (A') (A') (A') (A') (A') (A') (A") (A') (A') (A')
                 (A') (A') (A') (A') (A')
 The electronic state is 1-A'.
 Alpha  occ. eigenvalues --  -19.20418 -10.34451 -10.28328 -10.27441  -1.13857
 Alpha  occ. eigenvalues --   -0.89626  -0.73407  -0.65772  -0.56043  -0.55616
 Alpha  occ. eigenvalues --   -0.50002  -0.48033  -0.46723  -0.36340  -0.33491
 Alpha virt. eigenvalues --   -0.02867   0.08295   0.09415   0.10168   0.13795
 Alpha virt. eigenvalues --    0.15742   0.17484   0.20723   0.23700   0.23992
 Alpha virt. eigenvalues --    0.27962   0.29725   0.31942   0.34813   0.36278
 Alpha virt. eigenvalues --    0.37549   0.41540   0.46085   0.46989   0.50033
 Alpha virt. eigenvalues --    0.50800   0.52438   0.56142   0.58380   0.61495
 Alpha virt. eigenvalues --    0.66786   0.71445   0.75672   0.88129   1.22979
 Alpha virt. eigenvalues --    1.24443   1.29664   1.29943   1.30573   1.31775
 Alpha virt. eigenvalues --    1.37107   1.38069   1.38935   1.45902   1.47568
 Alpha virt. eigenvalues --    1.48137   1.52734   1.56911   1.57183   1.70334
 Alpha virt. eigenvalues --    1.74215   1.79036   1.83121   1.86532   1.89569
 Alpha virt. eigenvalues --    1.95626   1.98431   2.00465   2.10629   2.14353
 Alpha virt. eigenvalues --    2.14359   2.26501   2.32076   2.42434   2.46371
 Alpha virt. eigenvalues --    2.47630   2.51809   2.54827   2.64036   2.69062
 Alpha virt. eigenvalues --    2.69322   2.72270   2.75872   2.78834   2.82945
 Alpha virt. eigenvalues --    2.93479   3.02823   3.08358   3.11823   3.20184
 Alpha virt. eigenvalues --    3.26308   3.26906   3.27025   3.56865   3.60398
 Alpha virt. eigenvalues --    4.27455  21.59132  22.02133  22.14519  43.49441
          Condensed to atoms (all electrons):
               1          2          3          4          5          6
     1  O    7.845010   0.600787  -0.059310  -0.123339   0.005100   0.013461
     2  C    0.600787   4.711078   0.450841   0.134766  -0.018734   0.032363
     3  H   -0.059310   0.450841   0.708062  -0.230164   0.005678   0.053277
     4  C   -0.123339   0.134766  -0.230164   5.656030   0.379959   0.325415
     5  H    0.005100  -0.018734   0.005678   0.379959   0.483676  -0.020554
     6  C    0.013461   0.032363   0.053277   0.325415  -0.020554   5.039170
     7  H    0.000358  -0.001321   0.002958  -0.061580   0.003822   0.423007
     8  H   -0.000365   0.003687  -0.000411  -0.019422  -0.004951   0.399428
               7          8
     1  O    0.000358  -0.000365
     2  C   -0.001321   0.003687
     3  H    0.002958  -0.000411
     4  C   -0.061580  -0.019422
     5  H    0.003822  -0.004951
     6  C    0.423007   0.399428
     7  H    0.514114  -0.024994
     8  H   -0.024994   0.503338
 Mulliken charges:
               1
     1  O   -0.281701
     2  C    0.086533
     3  H    0.069069
     4  C   -0.061663
     5  H    0.166003
     6  C   -0.265567
     7  H    0.143636
     8  H    0.143691
 Sum of Mulliken charges =  -0.00000
 Mulliken charges with hydrogens summed into heavy atoms:
               1
     1  O   -0.281701
     2  C    0.155602
     4  C    0.104339
     6  C    0.021760
 Electronic spatial extent (au):  <R**2>=            299.0774
 Charge=             -0.0000 electrons
 Dipole moment (field-independent basis, Debye):
    X=              2.6425    Y=              2.1638    Z=              0.0000  Tot=              3.4154
 Quadrupole moment (field-independent basis, Debye-Ang):
   XX=            -24.9771   YY=            -24.4156   ZZ=            -25.2482
   XY=             -2.9407   XZ=              0.0000   YZ=             -0.0000
 Traceless Quadrupole moment (field-independent basis, Debye-Ang):
   XX=             -0.0968   YY=              0.4647   ZZ=             -0.3679
   XY=             -2.9407   XZ=              0.0000   YZ=             -0.0000
 Octapole moment (field-independent basis, Debye-Ang**2):
  XXX=              3.6287  YYY=              6.0965  ZZZ=              0.0000  XYY=              5.4948
  XXY=              4.8698  XXZ=              0.0000  XZZ=             -2.7563  YZZ=             -3.6497
  YYZ=              0.0000  XYZ=              0.0000
 Hexadecapole moment (field-independent basis, Debye-Ang**3):
 XXXX=           -152.2569 YYYY=           -203.3164 ZZZZ=            -27.1791 XXXY=            -62.0575
 XXXZ=             -0.0000 YYYX=            -59.7229 YYYZ=             -0.0000 ZZZX=             -0.0000
 ZZZY=             -0.0000 XXYY=            -61.8806 XXZZ=            -31.5027 YYZZ=            -41.7931
 XXYZ=             -0.0000 YYXZ=             -0.0000 ZZXY=            -20.3045
 N-N= 1.031656705328D+02 E-N=-6.545457515443D+02  KE= 1.910802036577D+02
 Symmetry A'   KE= 1.852477832102D+02
 Symmetry A"   KE= 5.832420447489D+00
 Unable to Open any file for archive entry.
 1\1\GINC-CX3-1-5\SP\RCAM-B3LYP TD-FC\TZVP\C3H4O1\RK820\11-Feb-2024\0\\
 # cam-b3lyp/tzvp td=(nstates=5) geom=check\\TD-DFT for Acrolein, calcu
 lating the first five excited states.\\0,1\O,0,-3.839649328,0.69646939
 81,-0.268587595\C,0,-5.0478350543,0.7595851661,-0.2663835439\H,0,-5.66
 60810728,-0.1626257286,-0.2985878575\C,0,-5.8127131761,2.0167557246,-0
 .2224821812\H,0,-5.2338570817,2.9334885295,-0.1904691667\C,0,-7.145131
 8388,2.015487204,-0.222526479\H,0,-7.7045967193,1.0859891016,-0.254985
 2675\H,0,-7.7225201689,2.930536995,-0.1905722367\\Version=ES64L-G16Rev
 C.01\State=1-A'\HF=-191.888279\RMSD=2.698e-09\PG=CS [SG(C3H4O1)]\\@
 The archive entry for this job was punched.


      THE ONE-EYED VIEW OF OUR UNIVERSE SAYS YOU MUST NOT LOOK
      FAR AFIELD FOR PROBLEMS.  SUCH PROBLEMS MAY NEVER ARRIVE. 
      INSTEAD, TEND TO THE WOLF WITHIN YOUR FENCES.
      THE PACKS RANGING OUTSIDE MAY NOT EVEN EXIST.

                              -- THE AZHAR BOOK SHAMRA I:4
                                 CHILDREN OF DUNE, BY FRANK HERBERT
 Job cpu time:       0 days  0 hours  3 minutes 11.6 seconds.
 Elapsed time:       0 days  0 hours  0 minutes  6.9 seconds.
 File lengths (MBytes):  RWF=    107 Int=      0 D2E=      0 Chk=     16 Scr=      1
 Normal termination of Gaussian 16 at Sun Feb 11 20:48:13 2024.
