 Entering Gaussian System, Link 0=g16
 Input=DPB_TD_cpu.gjf
 Output=DPB_TD_cpu.log
 Initial command:
 /apps/gaussian/g16-c01-avx2/g16/l1.exe "/var/tmp/pbs.8849567.pbs/Gau-3559357.inp" -scrdir="/var/tmp/pbs.8849567.pbs/"
 Entering Link 1 = /apps/gaussian/g16-c01-avx2/g16/l1.exe PID=   3559358.
  
 Copyright (c) 1988-2019, Gaussian, Inc.  All Rights Reserved.
  
 This is part of the Gaussian(R) 16 program.  It is based on
 the Gaussian(R) 09 system (copyright 2009, Gaussian, Inc.),
 the Gaussian(R) 03 system (copyright 2003, Gaussian, Inc.),
 the Gaussian(R) 98 system (copyright 1998, Gaussian, Inc.),
 the Gaussian(R) 94 system (copyright 1995, Gaussian, Inc.),
 the Gaussian 92(TM) system (copyright 1992, Gaussian, Inc.),
 the Gaussian 90(TM) system (copyright 1990, Gaussian, Inc.),
 the Gaussian 88(TM) system (copyright 1988, Gaussian, Inc.),
 the Gaussian 86(TM) system (copyright 1986, Carnegie Mellon
 University), and the Gaussian 82(TM) system (copyright 1983,
 Carnegie Mellon University). Gaussian is a federally registered
 trademark of Gaussian, Inc.
  
 This software contains proprietary and confidential information,
 including trade secrets, belonging to Gaussian, Inc.
  
 This software is provided under written license and may be
 used, copied, transmitted, or stored only in accord with that
 written license.
  
 The following legend is applicable only to US Government
 contracts under FAR:
  
                    RESTRICTED RIGHTS LEGEND
  
 Use, reproduction and disclosure by the US Government is
 subject to restrictions as set forth in subparagraphs (a)
 and (c) of the Commercial Computer Software - Restricted
 Rights clause in FAR 52.227-19.
  
 Gaussian, Inc.
 340 Quinnipiac St., Bldg. 40, Wallingford CT 06492
  
  
 ---------------------------------------------------------------
 Warning -- This program may not be used in any manner that
 competes with the business of Gaussian, Inc. or will provide
 assistance to any competitor of Gaussian, Inc.  The licensee
 of this program is prohibited from giving any competitor of
 Gaussian, Inc. access to this program.  By using this program,
 the user acknowledges that Gaussian, Inc. is engaged in the
 business of creating and licensing software in the field of
 computational chemistry and represents and warrants to the
 licensee that it is not a competitor of Gaussian, Inc. and that
 it will not use this program in any manner prohibited above.
 ---------------------------------------------------------------
  

 Cite this work as:
 Gaussian 16, Revision C.01,
 M. J. Frisch, G. W. Trucks, H. B. Schlegel, G. E. Scuseria, 
 M. A. Robb, J. R. Cheeseman, G. Scalmani, V. Barone, 
 G. A. Petersson, H. Nakatsuji, X. Li, M. Caricato, A. V. Marenich, 
 J. Bloino, B. G. Janesko, R. Gomperts, B. Mennucci, H. P. Hratchian, 
 J. V. Ortiz, A. F. Izmaylov, J. L. Sonnenberg, D. Williams-Young, 
 F. Ding, F. Lipparini, F. Egidi, J. Goings, B. Peng, A. Petrone, 
 T. Henderson, D. Ranasinghe, V. G. Zakrzewski, J. Gao, N. Rega, 
 G. Zheng, W. Liang, M. Hada, M. Ehara, K. Toyota, R. Fukuda, 
 J. Hasegawa, M. Ishida, T. Nakajima, Y. Honda, O. Kitao, H. Nakai, 
 T. Vreven, K. Throssell, J. A. Montgomery, Jr., J. E. Peralta, 
 F. Ogliaro, M. J. Bearpark, J. J. Heyd, E. N. Brothers, K. N. Kudin, 
 V. N. Staroverov, T. A. Keith, R. Kobayashi, J. Normand, 
 K. Raghavachari, A. P. Rendell, J. C. Burant, S. S. Iyengar, 
 J. Tomasi, M. Cossi, J. M. Millam, M. Klene, C. Adamo, R. Cammi, 
 J. W. Ochterski, R. L. Martin, K. Morokuma, O. Farkas, 
 J. B. Foresman, and D. J. Fox, Gaussian, Inc., Wallingford CT, 2019.
 
 ******************************************
 Gaussian 16:  ES64L-G16RevC.01  3-Jul-2019
                 2-Feb-2024 
 ******************************************
 %oldchk=/rds/general/user/rk820/home/dibs-g16/fc_ht/exercise_8-7/DPB_gs_opt_cpu.
 chk
 %chk=/rds/general/user/rk820/home/dibs-g16/fc_ht/exercise_8-7/DPB_TD_cpu.chk
 %NProcShared=32
 Will use up to   32 processors via shared memory.
 %Mem=110GB
 Copying data from "/rds/general/user/rk820/home/dibs-g16/fc_ht/exercise_8-7/DPB_gs_opt_cpu.chk" to current chk file "/rds/general/user/rk820/home/dibs-g16/fc_ht/exercise_8-7/DPB_TD_cpu.chk"
 IOpt=  2 FromEx=T IUOpen= 4 IOptOp= 5 NList=   0 IFRang= 0 IUIn= 4 IUOut= 2.
 ------------------------------------------
 # cam-b3lyp/tzvp td=(nstates=5) geom=check
 ------------------------------------------
 1/29=2,38=1,172=1/1;
 2/12=2,40=1/2;
 3/5=19,7=101,11=9,14=-4,25=1,30=1,74=-40/1,2,3,8;
 4//1;
 5/5=2,38=5/2;
 8/6=1,10=1,108=5/1;
 9/41=5,42=1,70=2/14;
 6/7=2,8=2,9=2,10=2/1;
 99/5=1,9=1/99;
 ----------------------------------------------------------------------
 Time dependent DFT on DPB's ground state to find first 5 excited state
 s. Will be followed by Opt and Freq later.
 ----------------------------------------------------------------------
 Structure from the checkpoint file:  "/rds/general/user/rk820/home/dibs-g16/fc_ht/exercise_8-7/DPB_TD_cpu.chk"
 Charge =  0 Multiplicity = 1
 Redundant internal coordinates found in file.  (old form).
 C,0,-3.2736189277,1.1210070599,-0.0381310748
 C,0,-2.2085507288,1.2787797932,-0.9193638376
 C,0,-1.4216664431,2.4247436395,-0.8659789945
 C,0,-1.6809924215,3.4342708341,0.0644132128
 C,0,-2.7521698106,3.2605006885,0.9444447576
 C,0,-3.5424978107,2.1167216557,0.8957539822
 H,0,-3.8855203691,0.2280280115,-0.0755583332
 H,0,-1.9866813376,0.5064624621,-1.6462799684
 H,0,-0.5894964446,2.5351750724,-1.5530452699
 H,0,-2.9659705593,4.0279889358,1.6806619082
 H,0,-4.3656532418,2.0008077865,1.5907982736
 C,0,-0.8497141707,4.6950955216,0.0933120713
 H,0,-0.7960997761,5.0732949139,1.1187141367
 H,0,0.1766913323,4.4622738592,-0.2061000364
 C,0,-1.3983823656,5.8043158405,-0.8211594212
 H,0,-2.4269481827,6.0359834979,-0.5248038291
 H,0,-1.4557765855,5.4260346554,-1.8473387038
 C,0,-0.5535543284,7.0790179592,-0.7886801037
 H,0,-0.4961087028,7.457251713,0.2375185783
 H,0,0.4749997116,6.8473193059,-1.085061792
 C,0,-1.1022182862,8.1882147125,-1.7030561207
 H,0,-2.1286388156,8.4210185497,-1.4036727462
 H,0,-1.1558309568,7.810078116,-2.7284903193
 C,0,-0.2709540451,9.4490578572,-1.6741365347
 C,0,-0.5300282077,10.4583889007,-0.743469151
 C,0,0.7999968436,9.6229940102,-2.5544166927
 C,0,0.2568764467,11.6043448158,-0.6900665795
 H,0,-1.3620171117,10.3478365009,-0.0562035044
 C,0,1.5903399924,10.7667570914,-2.5057060787
 H,0,1.0135848134,8.8556407439,-3.2908352834
 C,0,1.3217066097,11.7622895812,-1.5715494626
 H,0,0.0351969251,12.3765164417,0.0370620311
 H,0,2.4133212155,10.8828150455,-3.2009327201
 H,0,1.9336361094,12.6552485773,-1.5341011638
 Recover connectivity data from disk.
                           ----------------------------
                           !    Current Parameters    !
                           ! (Angstroms and Degrees)  !
 --------------------------                            --------------------------
 ! Name  Definition              Value                                          !
 --------------------------------------------------------------------------------
 ! R1    R(1,2)                  1.3913                                         !
 ! R2    R(1,6)                  1.3914                                         !
 ! R3    R(1,7)                  1.0832                                         !
 ! R4    R(2,3)                  1.3911                                         !
 ! R5    R(2,8)                  1.0836                                         !
 ! R6    R(3,4)                  1.3971                                         !
 ! R7    R(3,9)                  1.0848                                         !
 ! R8    R(4,5)                  1.3972                                         !
 ! R9    R(4,12)                 1.5105                                         !
 ! R10   R(5,6)                  1.3911                                         !
 ! R11   R(5,10)                 1.0848                                         !
 ! R12   R(6,11)                 1.0836                                         !
 ! R13   R(12,13)                1.0942                                         !
 ! R14   R(12,14)                1.0942                                         !
 ! R15   R(12,15)                1.5387                                         !
 ! R16   R(15,16)                1.0952                                         !
 ! R17   R(15,17)                1.0952                                         !
 ! R18   R(15,18)                1.5296                                         !
 ! R19   R(18,19)                1.0952                                         !
 ! R20   R(18,20)                1.0952                                         !
 ! R21   R(18,21)                1.5386                                         !
 ! R22   R(21,22)                1.0942                                         !
 ! R23   R(21,23)                1.0942                                         !
 ! R24   R(21,24)                1.5105                                         !
 ! R25   R(24,25)                1.3971                                         !
 ! R26   R(24,26)                1.3972                                         !
 ! R27   R(25,27)                1.3911                                         !
 ! R28   R(25,28)                1.0848                                         !
 ! R29   R(26,29)                1.3911                                         !
 ! R30   R(26,30)                1.0848                                         !
 ! R31   R(27,31)                1.3913                                         !
 ! R32   R(27,32)                1.0836                                         !
 ! R33   R(29,31)                1.3914                                         !
 ! R34   R(29,33)                1.0836                                         !
 ! R35   R(31,34)                1.0832                                         !
 ! A1    A(2,1,6)              119.4655                                         !
 ! A2    A(2,1,7)              120.2681                                         !
 ! A3    A(6,1,7)              120.2657                                         !
 ! A4    A(1,2,3)              120.1391                                         !
 ! A5    A(1,2,8)              120.0542                                         !
 ! A6    A(3,2,8)              119.806                                          !
 ! A7    A(2,3,4)              121.0498                                         !
 ! A8    A(2,3,9)              119.569                                          !
 ! A9    A(4,3,9)              119.3802                                         !
 ! A10   A(3,4,5)              118.1564                                         !
 ! A11   A(3,4,12)             120.9125                                         !
 ! A12   A(5,4,12)             120.9107                                         !
 ! A13   A(4,5,6)              121.0497                                         !
 ! A14   A(4,5,10)             119.3791                                         !
 ! A15   A(6,5,10)             119.5702                                         !
 ! A16   A(1,6,5)              120.1392                                         !
 ! A17   A(1,6,11)             120.0523                                         !
 ! A18   A(5,6,11)             119.8078                                         !
 ! A19   A(4,12,13)            109.475                                          !
 ! A20   A(4,12,14)            109.4744                                         !
 ! A21   A(4,12,15)            113.211                                          !
 ! A22   A(13,12,14)           106.4986                                         !
 ! A23   A(13,12,15)           108.9799                                         !
 ! A24   A(14,12,15)           108.9796                                         !
 ! A25   A(12,15,16)           109.0596                                         !
 ! A26   A(12,15,17)           109.0597                                         !
 ! A27   A(12,15,18)           113.0281                                         !
 ! A28   A(16,15,17)           106.1047                                         !
 ! A29   A(16,15,18)           109.6756                                         !
 ! A30   A(17,15,18)           109.6751                                         !
 ! A31   A(15,18,19)           109.6744                                         !
 ! A32   A(15,18,20)           109.6737                                         !
 ! A33   A(15,18,21)           113.0287                                         !
 ! A34   A(19,18,20)           106.1036                                         !
 ! A35   A(19,18,21)           109.061                                          !
 ! A36   A(20,18,21)           109.0613                                         !
 ! A37   A(18,21,22)           108.9817                                         !
 ! A38   A(18,21,23)           108.9811                                         !
 ! A39   A(18,21,24)           113.2116                                         !
 ! A40   A(22,21,23)           106.4964                                         !
 ! A41   A(22,21,24)           109.4747                                         !
 ! A42   A(23,21,24)           109.4729                                         !
 ! A43   A(21,24,25)           120.9128                                         !
 ! A44   A(21,24,26)           120.9099                                         !
 ! A45   A(25,24,26)           118.1568                                         !
 ! A46   A(24,25,27)           121.0495                                         !
 ! A47   A(24,25,28)           119.3811                                         !
 ! A48   A(27,25,28)           119.5684                                         !
 ! A49   A(24,26,29)           121.0495                                         !
 ! A50   A(24,26,30)           119.3782                                         !
 ! A51   A(29,26,30)           119.5713                                         !
 ! A52   A(25,27,31)           120.1391                                         !
 ! A53   A(25,27,32)           119.8057                                         !
 ! A54   A(31,27,32)           120.0545                                         !
 ! A55   A(26,29,31)           120.1391                                         !
 ! A56   A(26,29,33)           119.8086                                         !
 ! A57   A(31,29,33)           120.0516                                         !
 ! A58   A(27,31,29)           119.4657                                         !
 ! A59   A(27,31,34)           120.2685                                         !
 ! A60   A(29,31,34)           120.2652                                         !
 ! D1    D(6,1,2,3)             -0.0855                                         !
 ! D2    D(6,1,2,8)            179.6076                                         !
 ! D3    D(7,1,2,3)           -179.7853                                         !
 ! D4    D(7,1,2,8)             -0.0922                                         !
 ! D5    D(2,1,6,5)              0.0853                                         !
 ! D6    D(2,1,6,11)          -179.607                                          !
 ! D7    D(7,1,6,5)            179.7851                                         !
 ! D8    D(7,1,6,11)             0.0928                                         !
 ! D9    D(1,2,3,4)             -0.0411                                         !
 ! D10   D(1,2,3,9)            179.5921                                         !
 ! D11   D(8,2,3,4)           -179.735                                          !
 ! D12   D(8,2,3,9)             -0.1018                                         !
 ! D13   D(2,3,4,5)              0.1641                                         !
 ! D14   D(2,3,4,12)          -178.2083                                         !
 ! D15   D(9,3,4,5)           -179.4698                                         !
 ! D16   D(9,3,4,12)             2.1578                                         !
 ! D17   D(3,4,5,6)             -0.1643                                         !
 ! D18   D(3,4,5,10)           179.4696                                         !
 ! D19   D(12,4,5,6)           178.2081                                         !
 ! D20   D(12,4,5,10)           -2.158                                          !
 ! D21   D(3,4,12,13)         -149.0088                                         !
 ! D22   D(3,4,12,14)          -32.614                                          !
 ! D23   D(3,4,12,15)           89.1881                                         !
 ! D24   D(5,4,12,13)           32.6637                                         !
 ! D25   D(5,4,12,14)          149.0585                                         !
 ! D26   D(5,4,12,15)          -89.1393                                         !
 ! D27   D(4,5,6,1)              0.0415                                         !
 ! D28   D(4,5,6,11)           179.7346                                         !
 ! D29   D(10,5,6,1)          -179.5917                                         !
 ! D30   D(10,5,6,11)            0.1014                                         !
 ! D31   D(4,12,15,16)          57.7284                                         !
 ! D32   D(4,12,15,17)         -57.7308                                         !
 ! D33   D(4,12,15,18)         179.999                                          !
 ! D34   D(13,12,15,16)        -64.3516                                         !
 ! D35   D(13,12,15,17)       -179.8109                                         !
 ! D36   D(13,12,15,18)         57.919                                          !
 ! D37   D(14,12,15,16)        179.8074                                         !
 ! D38   D(14,12,15,17)         64.3482                                         !
 ! D39   D(14,12,15,18)        -57.922                                          !
 ! D40   D(12,15,18,19)        -58.0708                                         !
 ! D41   D(12,15,18,20)         58.0758                                         !
 ! D42   D(12,15,18,21)       -179.9975                                         !
 ! D43   D(16,15,18,19)         63.8546                                         !
 ! D44   D(16,15,18,20)       -179.9988                                         !
 ! D45   D(16,15,18,21)        -58.0721                                         !
 ! D46   D(17,15,18,19)       -179.996                                          !
 ! D47   D(17,15,18,20)        -63.8494                                         !
 ! D48   D(17,15,18,21)         58.0772                                         !
 ! D49   D(15,18,21,22)         57.9184                                         !
 ! D50   D(15,18,21,23)        -57.9218                                         !
 ! D51   D(15,18,21,24)        179.9997                                         !
 ! D52   D(19,18,21,22)        -64.3521                                         !
 ! D53   D(19,18,21,23)        179.8077                                         !
 ! D54   D(19,18,21,24)         57.7292                                         !
 ! D55   D(20,18,21,22)       -179.8117                                         !
 ! D56   D(20,18,21,23)         64.3481                                         !
 ! D57   D(20,18,21,24)        -57.7304                                         !
 ! D58   D(18,21,24,25)        -89.17                                           !
 ! D59   D(18,21,24,26)         89.1552                                         !
 ! D60   D(22,21,24,25)         32.6356                                         !
 ! D61   D(22,21,24,26)       -149.0393                                         !
 ! D62   D(23,21,24,25)        149.0267                                         !
 ! D63   D(23,21,24,26)        -32.6482                                         !
 ! D64   D(21,24,25,27)        178.2069                                         !
 ! D65   D(21,24,25,28)         -2.1601                                         !
 ! D66   D(26,24,25,27)         -0.1633                                         !
 ! D67   D(26,24,25,28)        179.4697                                         !
 ! D68   D(21,24,26,29)       -178.2065                                         !
 ! D69   D(21,24,26,30)          2.1597                                         !
 ! D70   D(25,24,26,29)          0.1636                                         !
 ! D71   D(25,24,26,30)       -179.4701                                         !
 ! D72   D(24,25,27,31)          0.0407                                         !
 ! D73   D(24,25,27,32)        179.7344                                         !
 ! D74   D(28,25,27,31)       -179.5916                                         !
 ! D75   D(28,25,27,32)          0.1021                                         !
 ! D76   D(24,26,29,31)         -0.0415                                         !
 ! D77   D(24,26,29,33)       -179.7349                                         !
 ! D78   D(30,26,29,31)        179.5916                                         !
 ! D79   D(30,26,29,33)         -0.1019                                         !
 ! D80   D(25,27,31,29)          0.0854                                         !
 ! D81   D(25,27,31,34)        179.7865                                         !
 ! D82   D(32,27,31,29)       -179.6076                                         !
 ! D83   D(32,27,31,34)          0.0936                                         !
 ! D84   D(26,29,31,27)         -0.085                                          !
 ! D85   D(26,29,31,34)       -179.7861                                         !
 ! D86   D(33,29,31,27)        179.6078                                         !
 ! D87   D(33,29,31,34)         -0.0934                                         !
 --------------------------------------------------------------------------------
                          Input orientation:                          
 ---------------------------------------------------------------------
 Center     Atomic      Atomic             Coordinates (Angstroms)
 Number     Number       Type             X           Y           Z
 ---------------------------------------------------------------------
      1          6           0       -3.273619    1.121007   -0.038131
      2          6           0       -2.208551    1.278780   -0.919364
      3          6           0       -1.421666    2.424744   -0.865979
      4          6           0       -1.680992    3.434271    0.064413
      5          6           0       -2.752170    3.260501    0.944445
      6          6           0       -3.542498    2.116722    0.895754
      7          1           0       -3.885520    0.228028   -0.075558
      8          1           0       -1.986681    0.506462   -1.646280
      9          1           0       -0.589496    2.535175   -1.553045
     10          1           0       -2.965971    4.027989    1.680662
     11          1           0       -4.365653    2.000808    1.590798
     12          6           0       -0.849714    4.695096    0.093312
     13          1           0       -0.796100    5.073295    1.118714
     14          1           0        0.176691    4.462274   -0.206100
     15          6           0       -1.398382    5.804316   -0.821159
     16          1           0       -2.426948    6.035983   -0.524804
     17          1           0       -1.455777    5.426035   -1.847339
     18          6           0       -0.553554    7.079018   -0.788680
     19          1           0       -0.496109    7.457252    0.237519
     20          1           0        0.475000    6.847319   -1.085062
     21          6           0       -1.102218    8.188215   -1.703056
     22          1           0       -2.128639    8.421019   -1.403673
     23          1           0       -1.155831    7.810078   -2.728490
     24          6           0       -0.270954    9.449058   -1.674137
     25          6           0       -0.530028   10.458389   -0.743469
     26          6           0        0.799997    9.622994   -2.554417
     27          6           0        0.256876   11.604345   -0.690067
     28          1           0       -1.362017   10.347837   -0.056204
     29          6           0        1.590340   10.766757   -2.505706
     30          1           0        1.013585    8.855641   -3.290835
     31          6           0        1.321707   11.762290   -1.571549
     32          1           0        0.035197   12.376516    0.037062
     33          1           0        2.413321   10.882815   -3.200933
     34          1           0        1.933636   12.655249   -1.534101
 ---------------------------------------------------------------------
                    Distance matrix (angstroms):
                    1          2          3          4          5
     1  C    0.000000
     2  C    1.391342   0.000000
     3  C    2.411387   1.391140   0.000000
     4  C    2.810367   2.427401   1.397149   0.000000
     5  C    2.411389   2.774261   2.397157   1.397166   0.000000
     6  C    1.391361   2.403376   2.774258   2.427399   1.391122
     7  H    1.083160   2.151352   3.394245   3.893524   3.394228
     8  H    2.149422   1.083562   2.146605   3.404700   3.857791
     9  H    3.391069   2.145092   1.084787   2.148467   3.382412
    10  H    3.391082   3.859011   3.382403   2.148472   1.084788
    11  H    2.149418   3.387526   3.857789   3.404713   2.146608
    12  C    4.320498   3.813550   2.530191   1.510476   2.530183
    13  H    4.805931   4.532894   3.368258   2.140324   2.672602
    14  H    4.805925   4.041381   2.672399   2.140317   3.368418
    15  C    5.105196   4.598532   3.379950   2.545824   3.379511
    16  H    5.011057   4.778531   3.764046   2.769934   3.157177
    17  H    5.011092   4.315962   3.157844   2.769953   3.763539
    18  C    6.592418   6.033146   4.735173   3.909356   4.734840
    19  H    6.923766   6.514933   5.234549   4.197415   4.816874
    20  H    6.923789   6.183650   4.817107   4.197439   5.234385
    21  C    7.578415   7.041196   5.832696   5.104793   5.832149
    22  H    7.514376   7.159086   6.061703   5.217597   5.703805
    23  H    7.514435   6.858499   5.704511   5.217643   6.061139
    24  C    9.002718   8.430742   7.163676   6.417821   7.163214
    25  C    9.757638   9.333467   8.083903   7.163493   7.719881
    26  C    9.757552   9.019460   7.720195   7.163370   8.083393
    27  C   11.081055  10.618296   9.333463   8.430580   9.019186
    28  H    9.422788   9.149287   7.964590   6.921971   7.291375
    29  C   11.080953  10.342619   9.019428   8.430450   9.332996
    30  H    9.422566   8.568247   7.291558   6.921683   7.963925
    31  C   11.692103  11.081157   9.757750   9.002692   9.757413
    32  H   11.732025  11.362610  10.098303   9.105482   9.575725
    33  H   11.731901  10.899759   9.575913   9.105312  10.097828
    34  H   12.743318  12.122692  10.787385  10.032309  10.787087
                    6          7          8          9         10
     6  C    0.000000
     7  H    2.151343   0.000000
     8  H    3.387541   2.479976   0.000000
     9  H    3.859007   4.285985   2.465054   0.000000
    10  H    2.145089   4.285975   4.942540   4.281703   0.000000
    11  H    1.083562   2.479923   4.286170   4.942536   2.465086
    12  C    3.813530   5.403640   4.675844   2.728271   2.728232
    13  H    4.041502   5.869192   5.469793   3.690940   2.473214
    14  H    4.532997   5.869194   4.733154   2.472856   3.691178
    15  C    4.598192   6.151159   5.393901   3.446336   3.445545
    16  H    4.315443   6.005131   5.659253   4.085238   3.030951
    17  H    4.778129   6.005176   4.952219   3.032181   4.084361
    18  C    6.032867   7.651575   6.781432   4.607825   4.607188
    19  H    6.183447   7.990482   7.354181   5.238481   4.465728
    20  H    6.514789   7.990510   6.825050   4.466178   5.238142
    21  C    7.040725   8.588370   7.732711   5.678225   5.677200
    22  H    6.857880   8.483844   7.919546   6.085592   5.432583
    23  H    7.158606   8.483910   7.429959   5.433876   6.084524
    24  C    8.430332  10.032344   9.105740   6.922276   6.921400
    25  C    9.019171  10.787294  10.098403   7.964689   7.291109
    26  C    9.333009  10.787224   9.576087   7.291818   7.963823
    27  C   10.342392  12.122609  11.362697   9.149367   8.567862
    28  H    8.568079  10.429716   9.988553   7.992184   6.747580
    29  C   10.617865  12.122519  10.899878   8.568442   9.148587
    30  H    9.148686  10.429522   9.023023   6.748190   7.991174
    31  C   11.080842  12.743327  11.732206   9.422987   9.422338
    32  H   10.899571  12.765989  12.158117   9.988528   9.022546
    33  H   11.362175  12.765886  11.377419   9.023056   9.987762
    34  H   12.122409  13.799483  12.766146  10.429882  10.429308
                   11         12         13         14         15
    11  H    0.000000
    12  C    4.675840   0.000000
    13  H    4.733366   1.094239   0.000000
    14  H    5.469968   1.094240   1.753511   0.000000
    15  C    5.393414   1.538722   2.158760   2.158757   0.000000
    16  H    4.951464   2.160490   2.507506   3.058933   1.095191
    17  H    5.658652   2.160488   3.058933   2.507479   1.095187
    18  C    6.781020   2.559044   2.778472   2.778490   1.529593
    19  H    6.824773   2.788430   2.559248   3.101508   2.160346
    20  H    7.353966   2.788458   3.101529   2.559297   2.160338
    21  C    7.731978   3.936061   4.214122   4.214157   2.558990
    22  H    7.429010   4.214156   4.398335   4.735017   2.778440
    23  H    7.918765   4.214189   4.735015   4.398393   2.778457
    24  C    9.105097   5.104801   5.217576   5.217617   3.909323
    25  C    9.575568   5.832491   5.704188   6.061486   4.735026
    26  C   10.097746   5.832341   6.061285   5.704045   4.734908
    27  C   10.899452   7.041019   6.858211   7.158899   6.033026
    28  H    9.022601   5.677877   5.433368   6.085223   4.607609
    29  C   11.362089   7.040869   7.158703   6.858068   6.032908
    30  H    9.987757   5.677541   6.084836   5.433015   4.607328
    31  C   11.731711   7.578395   7.514338   7.514369   6.592376
    32  H   11.377034   7.732429   7.429540   7.919241   6.781262
    33  H   12.157518   7.732226   7.918981   7.429326   6.781118
    34  H   12.765702   8.588338   8.483803   8.483824   7.651530
                   16         17         18         19         20
    16  H    0.000000
    17  H    1.750517   0.000000
    18  C    2.160360   2.160351   0.000000
    19  H    2.515806   3.064871   1.095192   0.000000
    20  H    3.064875   2.515753   1.095194   1.750511   0.000000
    21  C    2.788420   2.788451   1.538647   2.160441   2.160448
    22  H    2.559256   3.101534   2.158720   2.507491   3.058917
    23  H    3.101513   2.559308   2.158715   3.058910   2.507463
    24  C    4.197422   4.197442   2.545778   2.769912   2.769928
    25  C    4.817031   5.234513   3.379755   3.157580   3.763853
    26  C    5.234419   4.816943   3.379607   3.763673   3.157372
    27  C    6.183597   6.514904   4.598381   4.315760   4.778377
    28  H    4.466065   5.238424   3.446057   3.031757   4.084948
    29  C    6.514814   6.183493   4.598248   4.778219   4.315577
    30  H    5.238193   4.465829   3.445736   4.084599   3.031314
    31  C    6.923776   6.923771   5.105147   5.011041   5.011039
    32  H    6.824970   7.354126   5.393697   4.951932   5.659029
    33  H    7.354023   6.824851   5.393532   5.658817   4.951689
    34  H    7.990497   7.990480   6.151107   6.005120   6.005106
                   21         22         23         24         25
    21  C    0.000000
    22  H    1.094243   0.000000
    23  H    1.094247   1.753495   0.000000
    24  C    1.510484   2.140329   2.140309   0.000000
    25  C    2.530198   2.672509   3.368306   1.397144   0.000000
    26  C    2.530184   3.368362   2.672495   1.397170   2.397161
    27  C    3.813559   4.041470   4.532921   2.427398   1.391145
    28  H    2.728293   2.473057   3.691050   2.148471   1.084786
    29  C    3.813528   4.532965   4.041415   2.427397   2.774262
    30  H    2.728209   3.691050   2.473014   2.148464   3.382398
    31  C    4.320500   4.805950   4.805901   2.810362   2.411389
    32  H    4.675852   4.733272   5.469843   3.404694   2.146607
    33  H    4.675845   5.469916   4.733261   3.404717   3.857793
    34  H    5.403642   5.869224   5.869161   3.893519   3.394250
                   26         27         28         29         30
    26  C    0.000000
    27  C    2.774262   0.000000
    28  H    3.382421   2.145090   0.000000
    29  C    1.391118   2.403378   3.859012   0.000000
    30  H    1.084787   3.859013   4.281702   2.145097   0.000000
    31  C    2.411389   1.391338   3.391065   1.391365   3.391090
    32  H    3.857793   1.083562   2.465045   3.387546   4.942541
    33  H    2.146613   3.387522   4.942540   1.083562   2.465113
    34  H    3.394223   2.151352   4.285984   2.151341   4.285980
                   31         32         33         34
    31  C    0.000000
    32  H    2.149421   0.000000
    33  H    2.149416   4.286167   0.000000
    34  H    1.083160   2.479983   2.479908   0.000000
 Stoichiometry    C16H18
 Framework group  C1[X(C16H18)]
 Deg. of freedom    96
 Full point group                 C1      NOp   1
 Largest Abelian subgroup         C1      NOp   1
 Largest concise Abelian subgroup C1      NOp   1
                         Standard orientation:                         
 ---------------------------------------------------------------------
 Center     Atomic      Atomic             Coordinates (Angstroms)
 Number     Number       Type             X           Y           Z
 ---------------------------------------------------------------------
      1          6           0        5.830871   -0.000199   -0.421125
      2          6           0        5.167842    1.201572   -0.193153
      3          6           0        3.851630    1.198644    0.257234
      4          6           0        3.171591    0.000166    0.487937
      5          6           0        3.851260   -1.198514    0.257094
      6          6           0        5.167452   -1.201803   -0.193292
      7          1           0        6.856822   -0.000364   -0.768487
      8          1           0        5.677448    2.142908   -0.361368
      9          1           0        3.345709    2.140991    0.438309
     10          1           0        3.345025   -2.140713    0.438069
     11          1           0        5.676793   -2.143262   -0.361620
     12          6           0        1.729866    0.000344    0.938454
     13          1           0        1.543798   -0.876186    1.566493
     14          1           0        1.543832    0.877326    1.565876
     15          6           0        0.729236   -0.000043   -0.230479
     16          1           0        0.916527   -0.875512   -0.861288
     17          1           0        0.916523    0.875005   -0.861866
     18          6           0       -0.729273    0.000115    0.230397
     19          1           0       -0.916531   -0.874902    0.861843
     20          1           0       -0.916536    0.875609    0.861185
     21          6           0       -1.729866   -0.000333   -0.938469
     22          1           0       -1.543816   -0.877295   -1.565917
     23          1           0       -1.543862    0.876200   -1.566536
     24          6           0       -3.171600   -0.000185   -0.487952
     25          6           0       -3.851494   -1.198662   -0.256853
     26          6           0       -3.851389    1.198499   -0.257464
     27          6           0       -5.167702   -1.201590    0.193562
     28          1           0       -3.345488   -2.141017   -0.437646
     29          6           0       -5.167568    1.201788    0.192949
     30          1           0       -3.345243    2.140685   -0.438749
     31          6           0       -5.830854    0.000178    0.421168
     32          1           0       -5.677200   -2.142930    0.362079
     33          1           0       -5.677015    2.143237    0.361007
     34          1           0       -6.856792    0.000350    0.768568
 ---------------------------------------------------------------------
 Rotational constants (GHZ):           2.1582694           0.1455865           0.1403803
 Standard basis: TZVP (5D, 7F)
 There are   428 symmetry adapted cartesian basis functions of A   symmetry.
 There are   412 symmetry adapted basis functions of A   symmetry.
   412 basis functions,   704 primitive gaussians,   428 cartesian basis functions
    57 alpha electrons       57 beta electrons
       nuclear repulsion energy       931.7638354155 Hartrees.
 NAtoms=   34 NActive=   34 NUniq=   34 SFac= 1.00D+00 NAtFMM=   60 NAOKFM=F Big=F
 Integral buffers will be    131072 words long.
 Raffenetti 1 integral format.
 Two-electron integral symmetry is turned on.
 One-electron integrals computed using PRISM.
 NBasis=   412 RedAO= T EigKep=  8.96D-06  NBF=   412
 NBsUse=   412 1.00D-06 EigRej= -1.00D+00 NBFU=   412
 ExpMin= 9.52D-02 ExpMax= 1.36D+04 ExpMxC= 4.63D+02 IAcc=3 IRadAn=         5 AccDes= 0.00D+00
 Harris functional with IExCor=20419 and IRadAn=       5 diagonalized for initial guess.
 HarFok:  IExCor=20419 AccDes= 0.00D+00 IRadAn=         5 IDoV= 1 UseB2=F ITyADJ=14
 ICtDFT=  3500011 ScaDFX=  1.000000  1.000000  1.000000  1.000000
 FoFCou: FMM=F IPFlag=           0 FMFlag=      100000 FMFlg1=           0
         NFxFlg=           0 DoJE=T BraDBF=F KetDBF=T FulRan=T
         wScrn=  0.000000 ICntrl=       500 IOpCl=  0 I1Cent=   200000004 NGrid=           0
         NMat0=    1 NMatS0=      1 NMatT0=    0 NMatD0=    1 NMtDS0=    0 NMtDT0=    0
 Petite list used in FoFCou.
 Requested convergence on RMS density matrix=1.00D-08 within 128 cycles.
 Requested convergence on MAX density matrix=1.00D-06.
 Requested convergence on             energy=1.00D-06.
 No special actions if energy rises.
 Integral accuracy reduced to 1.0D-05 until final iterations.
 Initial convergence to 1.0D-05 achieved.  Increase integral accuracy.
 SCF Done:  E(RCAM-B3LYP) =  -620.384125729     A.U. after   18 cycles
            NFock= 18  Conv=0.92D-08     -V/T= 2.0048
 DoSCS=F DFT=T ScalE2(SS,OS)=  1.000000  1.000000
 ExpMin= 9.52D-02 ExpMax= 1.36D+04 ExpMxC= 4.63D+02 IAcc=3 IRadAn=         5 AccDes= 0.00D+00
 HarFok:  IExCor=  205 AccDes= 0.00D+00 IRadAn=         5 IDoV=-2 UseB2=F ITyADJ=14
 ICtDFT= 12500011 ScaDFX=  1.000000  1.000000  1.000000  1.000000
 Range of M.O.s used for correlation:    17   412
 NBasis=   412 NAE=    57 NBE=    57 NFC=    16 NFV=     0
 NROrb=    396 NOA=    41 NOB=    41 NVA=   355 NVB=   355

 **** Warning!!: The largest alpha MO coefficient is  0.57250853D+02

 Orbital symmetries:
       Occupied  (A) (A) (A) (A) (A) (A) (A) (A) (A) (A) (A) (A)
                 (A) (A) (A) (A) (A) (A) (A) (A) (A) (A) (A) (A)
                 (A) (A) (A) (A) (A) (A) (A) (A) (A) (A) (A) (A)
                 (A) (A) (A) (A) (A) (A) (A) (A) (A) (A) (A) (A)
                 (A) (A) (A) (A) (A) (A) (A) (A) (A)
       Virtual   (A) (A) (A) (A) (A) (A) (A) (A) (A) (A) (A) (A)
                 (A) (A) (A) (A) (A) (A) (A) (A) (A) (A) (A) (A)
                 (A) (A) (A) (A) (A) (A) (A) (A) (A) (A) (A) (A)
                 (A) (A) (A) (A) (A) (A) (A) (A) (A) (A) (A) (A)
                 (A) (A) (A) (A) (A) (A) (A) (A) (A) (A) (A) (A)
                 (A) (A) (A) (A) (A) (A) (A) (A) (A) (A) (A) (A)
                 (A) (A) (A) (A) (A) (A) (A) (A) (A) (A) (A) (A)
                 (A) (A) (A) (A) (A) (A) (A) (A) (A) (A) (A) (A)
                 (A) (A) (A) (A) (A) (A) (A) (A) (A) (A) (A) (A)
                 (A) (A) (A) (A) (A) (A) (A) (A) (A) (A) (A) (A)
                 (A) (A) (A) (A) (A) (A) (A) (A) (A) (A) (A) (A)
                 (A) (A) (A) (A) (A) (A) (A) (A) (A) (A) (A) (A)
                 (A) (A) (A) (A) (A) (A) (A) (A) (A) (A) (A) (A)
                 (A) (A) (A) (A) (A) (A) (A) (A) (A) (A) (A) (A)
                 (A) (A) (A) (A) (A) (A) (A) (A) (A) (A) (A) (A)
                 (A) (A) (A) (A) (A) (A) (A) (A) (A) (A) (A) (A)
                 (A) (A) (A) (A) (A) (A) (A) (A) (A) (A) (A) (A)
                 (A) (A) (A) (A) (A) (A) (A) (A) (A) (A) (A) (A)
                 (A) (A) (A) (A) (A) (A) (A) (A) (A) (A) (A) (A)
                 (A) (A) (A) (A) (A) (A) (A) (A) (A) (A) (A) (A)
                 (A) (A) (A) (A) (A) (A) (A) (A) (A) (A) (A) (A)
                 (A) (A) (A) (A) (A) (A) (A) (A) (A) (A) (A) (A)
                 (A) (A) (A) (A) (A) (A) (A) (A) (A) (A) (A) (A)
                 (A) (A) (A) (A) (A) (A) (A) (A) (A) (A) (A) (A)
                 (A) (A) (A) (A) (A) (A) (A) (A) (A) (A) (A) (A)
                 (A) (A) (A) (A) (A) (A) (A) (A) (A) (A) (A) (A)
                 (A) (A) (A) (A) (A) (A) (A) (A) (A) (A) (A) (A)
                 (A) (A) (A) (A) (A) (A) (A) (A) (A) (A) (A) (A)
                 (A) (A) (A) (A) (A) (A) (A) (A) (A) (A) (A) (A)
                 (A) (A) (A) (A) (A) (A) (A)
    20 initial guesses have been made.
 Convergence on wavefunction:    0.001000000000000
 Iteration     1 Dimension    20 NMult     0 NNew     20
 CISAX will form    20 AO SS matrices at one time.
 New state      1 was old state      2
 New state      2 was old state      3
 New state      3 was old state      1
 New state      5 was old state     17
 Iteration     2 Dimension    30 NMult    20 NNew     10
 Iteration     3 Dimension    40 NMult    30 NNew     10
 Iteration     4 Dimension    50 NMult    40 NNew     10
 Iteration     5 Dimension    60 NMult    50 NNew     10
 Iteration     6 Dimension    62 NMult    60 NNew      2
 Iteration     7 Dimension    64 NMult    62 NNew      2
 ***********************************************************************
 Excited states from <AA,BB:AA,BB> singles matrix:
 ***********************************************************************
 
 Ground to excited state transition densities written to RWF  633
 Ground to excited state transition electric dipole moments (Au):
       state          X           Y           Z        Dip. S.      Osc.
         1        -0.0001      0.1482      0.0000      0.0220      0.0029
         2        -0.0000     -0.0012      0.0000      0.0000      0.0000
         3        -0.8113      0.0001      0.1006      0.6682      0.0997
         4         0.0002      0.0001     -0.0000      0.0000      0.0000
         5         0.0016     -0.0029     -0.0004      0.0000      0.0000
 Ground to excited state transition velocity dipole moments (Au):
       state          X           Y           Z        Dip. S.      Osc.
         1         0.0000     -0.0294     -0.0000      0.0009      0.0029
         2         0.0000      0.0002     -0.0000      0.0000      0.0000
         3         0.1806     -0.0000     -0.0221      0.0331      0.0986
         4        -0.0001     -0.0000      0.0000      0.0000      0.0000
         5        -0.0004      0.0007      0.0001      0.0000      0.0000
 Ground to excited state transition magnetic dipole moments (Au):
       state          X           Y           Z
         1        -0.0004      0.0001     -0.0040
         2        -0.0501      0.0000     -0.4979
         3        -0.0000      0.0002     -0.0001
         4        -0.0001      0.2550     -0.0007
         5         0.0001     -1.9744      0.0181
 Ground to excited state transition velocity quadrupole moments (Au):
       state          XX          YY          ZZ          XY          XZ          YZ
         1         0.0001     -0.0000     -0.0000     -0.0026     -0.0001      0.0001
         2         0.0002      0.0000     -0.0000     -0.3126     -0.0000      0.0133
         3         0.0007      0.0000     -0.0000     -0.0001     -0.0001      0.0000
         4         1.0713     -0.0226     -0.0570     -0.0004     -0.0990      0.0000
         5       -10.8602      0.0348      0.1581      0.0169      1.7110     -0.0000
 <0|del|b> * <b|rxdel|0> + <0|del|b> * <b|delr+rdel|0>
 Rotatory Strengths (R) in cgs (10**-40 erg-esu-cm/Gauss)
       state          XX          YY          ZZ    R(velocity)    E-M Angle
         1        -0.0100      0.0000     -0.0019     -0.0039       90.00
         2         0.0138      0.0028     -0.0005      0.0054       90.00
         3         0.0099      0.0018     -0.0049      0.0023       90.00
         4        -0.0094      0.0000     -0.0041     -0.0045       90.00
         5        -3.6090      0.0001     -0.2583     -1.2891      150.68
 1/2[<0|r|b>*<b|rxdel|0> + (<0|rxdel|b>*<b|r|0>)*]
 Rotatory Strengths (R) in cgs (10**-40 erg-esu-cm/Gauss)
       state          XX          YY          ZZ     R(length)
         1        -0.0000     -0.0120      0.0000     -0.0040
         2        -0.0008      0.0000      0.0124      0.0039
         3        -0.0033     -0.0000      0.0104      0.0023
         4         0.0000     -0.0134     -0.0000     -0.0045
         5        -0.0001     -4.0077      0.0045     -1.3344
  1/2[<0|del|b>*<b|r|0> + (<0|r|b>*<b|del|0>)*] (Au)
       state          X           Y           Z        Dip. S.   Osc.(frdel)
         1        -0.0000     -0.0044     -0.0000      0.0044      0.0029
         2        -0.0000     -0.0000     -0.0000      0.0000      0.0000
         3        -0.1465     -0.0000     -0.0022      0.1487      0.0992
         4        -0.0000     -0.0000     -0.0000      0.0000      0.0000
         5        -0.0000     -0.0000     -0.0000      0.0000      0.0000

 Excitation energies and oscillator strengths:
 
 Excited State   1:      Singlet-A      5.4392 eV  227.94 nm  f=0.0029  <S**2>=0.000
      54 -> 61        -0.31457
      55 -> 58        -0.32978
      56 -> 60        -0.36695
      57 -> 59         0.39104
 This state for optimization and/or second-order correction.
 Total Energy, E(TD-HF/TD-DFT) =  -620.184237332    
 Copying the excited state density for this state as the 1-particle RhoCI density.
 
 Excited State   2:      Singlet-A      5.4401 eV  227.91 nm  f=0.0000  <S**2>=0.000
      54 -> 58        -0.32895
      55 -> 61        -0.31499
      56 -> 59        -0.37028
      57 -> 60         0.38823
 
 Excited State   3:      Singlet-A      6.0909 eV  203.56 nm  f=0.0997  <S**2>=0.000
      54 -> 60         0.28707
      55 -> 59         0.29112
      56 -> 61        -0.36736
      57 -> 58         0.43781
 
 Excited State   4:      Singlet-A      6.1242 eV  202.45 nm  f=0.0000  <S**2>=0.000
      54 -> 59         0.31756
      55 -> 60         0.31537
      56 -> 58        -0.37915
      57 -> 61         0.38646
 
 Excited State   5:      Singlet-A      7.0936 eV  174.78 nm  f=0.0000  <S**2>=0.000
      54 -> 59         0.38126
      55 -> 60         0.37510
      56 -> 58         0.29712
      57 -> 61        -0.33088
 SavETr:  write IOETrn=   770 NScale= 10 NData=  16 NLR=1 NState=    5 LETran=     100.

 **********************************************************************

            Population analysis using the SCF Density.

 **********************************************************************

 Orbital symmetries:
       Occupied  (A) (A) (A) (A) (A) (A) (A) (A) (A) (A) (A) (A)
                 (A) (A) (A) (A) (A) (A) (A) (A) (A) (A) (A) (A)
                 (A) (A) (A) (A) (A) (A) (A) (A) (A) (A) (A) (A)
                 (A) (A) (A) (A) (A) (A) (A) (A) (A) (A) (A) (A)
                 (A) (A) (A) (A) (A) (A) (A) (A) (A)
       Virtual   (A) (A) (A) (A) (A) (A) (A) (A) (A) (A) (A) (A)
                 (A) (A) (A) (A) (A) (A) (A) (A) (A) (A) (A) (A)
                 (A) (A) (A) (A) (A) (A) (A) (A) (A) (A) (A) (A)
                 (A) (A) (A) (A) (A) (A) (A) (A) (A) (A) (A) (A)
                 (A) (A) (A) (A) (A) (A) (A) (A) (A) (A) (A) (A)
                 (A) (A) (A) (A) (A) (A) (A) (A) (A) (A) (A) (A)
                 (A) (A) (A) (A) (A) (A) (A) (A) (A) (A) (A) (A)
                 (A) (A) (A) (A) (A) (A) (A) (A) (A) (A) (A) (A)
                 (A) (A) (A) (A) (A) (A) (A) (A) (A) (A) (A) (A)
                 (A) (A) (A) (A) (A) (A) (A) (A) (A) (A) (A) (A)
                 (A) (A) (A) (A) (A) (A) (A) (A) (A) (A) (A) (A)
                 (A) (A) (A) (A) (A) (A) (A) (A) (A) (A) (A) (A)
                 (A) (A) (A) (A) (A) (A) (A) (A) (A) (A) (A) (A)
                 (A) (A) (A) (A) (A) (A) (A) (A) (A) (A) (A) (A)
                 (A) (A) (A) (A) (A) (A) (A) (A) (A) (A) (A) (A)
                 (A) (A) (A) (A) (A) (A) (A) (A) (A) (A) (A) (A)
                 (A) (A) (A) (A) (A) (A) (A) (A) (A) (A) (A) (A)
                 (A) (A) (A) (A) (A) (A) (A) (A) (A) (A) (A) (A)
                 (A) (A) (A) (A) (A) (A) (A) (A) (A) (A) (A) (A)
                 (A) (A) (A) (A) (A) (A) (A) (A) (A) (A) (A) (A)
                 (A) (A) (A) (A) (A) (A) (A) (A) (A) (A) (A) (A)
                 (A) (A) (A) (A) (A) (A) (A) (A) (A) (A) (A) (A)
                 (A) (A) (A) (A) (A) (A) (A) (A) (A) (A) (A) (A)
                 (A) (A) (A) (A) (A) (A) (A) (A) (A) (A) (A) (A)
                 (A) (A) (A) (A) (A) (A) (A) (A) (A) (A) (A) (A)
                 (A) (A) (A) (A) (A) (A) (A) (A) (A) (A) (A) (A)
                 (A) (A) (A) (A) (A) (A) (A) (A) (A) (A) (A) (A)
                 (A) (A) (A) (A) (A) (A) (A) (A) (A) (A) (A) (A)
                 (A) (A) (A) (A) (A) (A) (A) (A) (A) (A) (A) (A)
                 (A) (A) (A) (A) (A) (A) (A)
 The electronic state is 1-A.
 Alpha  occ. eigenvalues --  -10.25543 -10.25542 -10.24796 -10.24796 -10.24790
 Alpha  occ. eigenvalues --  -10.24790 -10.24618 -10.24618 -10.24582 -10.24582
 Alpha  occ. eigenvalues --  -10.24563 -10.24563 -10.24560 -10.24560 -10.24240
 Alpha  occ. eigenvalues --  -10.24219  -0.94632  -0.94495  -0.89392  -0.86390
 Alpha  occ. eigenvalues --   -0.82807  -0.82782  -0.82781  -0.78283  -0.72622
 Alpha  occ. eigenvalues --   -0.68322  -0.68295  -0.67440  -0.65431  -0.65185
 Alpha  occ. eigenvalues --   -0.58869  -0.58401  -0.55697  -0.53648  -0.52780
 Alpha  occ. eigenvalues --   -0.52636  -0.51360  -0.49827  -0.49043  -0.48972
 Alpha  occ. eigenvalues --   -0.48848  -0.46709  -0.46534  -0.45354  -0.42877
 Alpha  occ. eigenvalues --   -0.42868  -0.42317  -0.40748  -0.40731  -0.40401
 Alpha  occ. eigenvalues --   -0.39899  -0.39039  -0.38554  -0.31010  -0.30981
 Alpha  occ. eigenvalues --   -0.30315  -0.29689
 Alpha virt. eigenvalues --    0.03315   0.03350   0.03440   0.03778   0.06877
 Alpha virt. eigenvalues --    0.08808   0.09680   0.09953   0.10349   0.11599
 Alpha virt. eigenvalues --    0.11981   0.13277   0.13786   0.14292   0.14555
 Alpha virt. eigenvalues --    0.14748   0.15952   0.15966   0.16083   0.17123
 Alpha virt. eigenvalues --    0.17436   0.18882   0.19313   0.19741   0.20145
 Alpha virt. eigenvalues --    0.20236   0.21637   0.22638   0.23690   0.25023
 Alpha virt. eigenvalues --    0.25372   0.25537   0.26174   0.26632   0.27321
 Alpha virt. eigenvalues --    0.27954   0.28119   0.28411   0.28513   0.28932
 Alpha virt. eigenvalues --    0.29625   0.30081   0.30911   0.30954   0.32295
 Alpha virt. eigenvalues --    0.32838   0.33028   0.33694   0.35292   0.35713
 Alpha virt. eigenvalues --    0.36195   0.36346   0.36864   0.37149   0.37742
 Alpha virt. eigenvalues --    0.39029   0.39622   0.40895   0.41233   0.41286
 Alpha virt. eigenvalues --    0.41403   0.42080   0.42672   0.42685   0.43133
 Alpha virt. eigenvalues --    0.44086   0.44406   0.44762   0.45117   0.45637
 Alpha virt. eigenvalues --    0.46463   0.47218   0.47251   0.48177   0.48296
 Alpha virt. eigenvalues --    0.48701   0.49264   0.49864   0.50247   0.50359
 Alpha virt. eigenvalues --    0.52125   0.52188   0.52412   0.53120   0.53287
 Alpha virt. eigenvalues --    0.53785   0.54278   0.54559   0.56397   0.56540
 Alpha virt. eigenvalues --    0.57260   0.57361   0.57418   0.57842   0.58429
 Alpha virt. eigenvalues --    0.58921   0.60646   0.61199   0.64561   0.64969
 Alpha virt. eigenvalues --    0.65520   0.65943   0.67348   0.68003   0.70839
 Alpha virt. eigenvalues --    0.72111   0.72645   0.72651   0.73867   0.75191
 Alpha virt. eigenvalues --    0.75246   0.75992   0.77045   0.78454   0.78737
 Alpha virt. eigenvalues --    0.80662   0.81352   0.81818   0.83375   0.85809
 Alpha virt. eigenvalues --    0.87417   0.95635   0.95740   1.15960   1.21689
 Alpha virt. eigenvalues --    1.23100   1.26356   1.27431   1.27928   1.28062
 Alpha virt. eigenvalues --    1.29634   1.29856   1.31208   1.31669   1.32003
 Alpha virt. eigenvalues --    1.32397   1.32427   1.32677   1.33011   1.34325
 Alpha virt. eigenvalues --    1.36218   1.36241   1.36726   1.36776   1.37026
 Alpha virt. eigenvalues --    1.37272   1.37300   1.37560   1.38602   1.38740
 Alpha virt. eigenvalues --    1.39014   1.39377   1.39903   1.44082   1.46593
 Alpha virt. eigenvalues --    1.47328   1.48607   1.48632   1.49057   1.50741
 Alpha virt. eigenvalues --    1.51479   1.51591   1.51723   1.51725   1.51743
 Alpha virt. eigenvalues --    1.52144   1.52224   1.53448   1.54115   1.54335
 Alpha virt. eigenvalues --    1.54876   1.56570   1.56624   1.56970   1.58486
 Alpha virt. eigenvalues --    1.58985   1.59267   1.59451   1.59684   1.59908
 Alpha virt. eigenvalues --    1.60990   1.61113   1.61663   1.61765   1.62285
 Alpha virt. eigenvalues --    1.62949   1.64921   1.65632   1.68005   1.68834
 Alpha virt. eigenvalues --    1.70784   1.71822   1.74228   1.74682   1.75892
 Alpha virt. eigenvalues --    1.76030   1.77247   1.79744   1.82247   1.83030
 Alpha virt. eigenvalues --    1.83649   1.83883   1.84742   1.85641   1.86586
 Alpha virt. eigenvalues --    1.86731   1.87300   1.87451   1.89502   1.91432
 Alpha virt. eigenvalues --    1.91623   1.92261   1.93369   1.93554   1.93832
 Alpha virt. eigenvalues --    1.94299   1.94552   1.95178   1.95621   1.96151
 Alpha virt. eigenvalues --    1.96768   1.97014   1.97130   1.98151   1.98884
 Alpha virt. eigenvalues --    1.99037   1.99294   2.00030   2.00388   2.04650
 Alpha virt. eigenvalues --    2.05138   2.05922   2.08745   2.08805   2.08918
 Alpha virt. eigenvalues --    2.09623   2.11697   2.12372   2.15437   2.18056
 Alpha virt. eigenvalues --    2.21360   2.24595   2.24757   2.25211   2.26775
 Alpha virt. eigenvalues --    2.28653   2.30608   2.32781   2.34848   2.35310
 Alpha virt. eigenvalues --    2.38060   2.38069   2.38651   2.39108   2.39725
 Alpha virt. eigenvalues --    2.40368   2.41095   2.42755   2.42949   2.43175
 Alpha virt. eigenvalues --    2.44631   2.44728   2.47609   2.49191   2.49608
 Alpha virt. eigenvalues --    2.54201   2.55245   2.57061   2.57355   2.57477
 Alpha virt. eigenvalues --    2.58629   2.59203   2.61045   2.61277   2.62753
 Alpha virt. eigenvalues --    2.64011   2.64182   2.64393   2.66778   2.68094
 Alpha virt. eigenvalues --    2.68194   2.72080   2.72204   2.72494   2.72987
 Alpha virt. eigenvalues --    2.74323   2.75325   2.75416   2.75476   2.77121
 Alpha virt. eigenvalues --    2.77990   2.78101   2.81946   2.82158   2.82198
 Alpha virt. eigenvalues --    2.84490   2.85918   2.87261   2.87760   2.88288
 Alpha virt. eigenvalues --    2.89810   2.92354   2.96252   2.98131   3.04563
 Alpha virt. eigenvalues --    3.04668   3.09313   3.09624   3.11292   3.11869
 Alpha virt. eigenvalues --    3.14623   3.14710   3.17907   3.20382   3.21070
 Alpha virt. eigenvalues --    3.21114   3.24968   3.25236   3.25363   3.25645
 Alpha virt. eigenvalues --    3.26740   3.29204   3.37320   3.37712   3.40602
 Alpha virt. eigenvalues --    3.42023   3.45545   3.46951   3.48033   3.48622
 Alpha virt. eigenvalues --    3.51529   3.51926   3.54506   3.54595   3.60583
 Alpha virt. eigenvalues --    3.60613   3.60695   3.88309   3.88827  21.38090
 Alpha virt. eigenvalues --   21.39285  21.90635  21.91111  21.91355  21.92614
 Alpha virt. eigenvalues --   22.07927  22.13827  22.15000  22.15208  22.17249
 Alpha virt. eigenvalues --   22.19136  22.20868  22.22475  22.32442  22.33305
          Condensed to atoms (all electrons):
               1          2          3          4          5          6
     1  C    4.936936   0.510428  -0.054172  -0.043074  -0.054159   0.510402
     2  C    0.510428   4.941476   0.471118  -0.047397  -0.078618  -0.046179
     3  C   -0.054172   0.471118   5.054087   0.487599  -0.039620  -0.078608
     4  C   -0.043074  -0.047397   0.487599   5.148246   0.487496  -0.047385
     5  C   -0.054159  -0.078618  -0.039620   0.487496   5.054208   0.471110
     6  C    0.510402  -0.046179  -0.078608  -0.047385   0.471110   4.941478
     7  H    0.402006  -0.038300   0.011163  -0.001761   0.011163  -0.038305
     8  H   -0.039524   0.399273  -0.034572   0.010431   0.000131   0.008688
     9  H    0.008728  -0.036086   0.401446  -0.041945   0.010400  -0.001486
    10  H    0.008727  -0.001485   0.010395  -0.041948   0.401453  -0.036085
    11  H   -0.039525   0.008688   0.000132   0.010429  -0.034569   0.399273
    12  C    0.000893   0.013094  -0.053413   0.138643  -0.053415   0.013084
    13  H    0.000185  -0.000861   0.007618  -0.066150  -0.000982   0.000150
    14  H    0.000185   0.000153  -0.000967  -0.066218   0.007631  -0.000861
    15  C    0.000363  -0.000508  -0.013092  -0.041908  -0.013082  -0.000502
    16  H   -0.000007  -0.000276   0.003993   0.000630  -0.000889  -0.000305
    17  H   -0.000007  -0.000306  -0.000887   0.000660   0.003992  -0.000277
    18  C   -0.000050   0.000102  -0.000240   0.017298  -0.000240   0.000102
    19  H    0.000000   0.000007  -0.000275  -0.001211   0.000719  -0.000011
    20  H    0.000000  -0.000011   0.000719  -0.001210  -0.000275   0.000007
    21  C    0.000002  -0.000000  -0.000130  -0.001774  -0.000130  -0.000000
    22  H    0.000000  -0.000001   0.000025  -0.000095  -0.000046   0.000002
    23  H    0.000000   0.000002  -0.000046  -0.000095   0.000025  -0.000001
    24  C   -0.000000   0.000000  -0.000001   0.000177  -0.000001   0.000000
    25  C   -0.000000  -0.000000   0.000001  -0.000001  -0.000002   0.000000
    26  C   -0.000000   0.000000  -0.000002  -0.000001   0.000001  -0.000000
    27  C   -0.000000   0.000000  -0.000000   0.000000   0.000000   0.000000
    28  H   -0.000000  -0.000000  -0.000000  -0.000002  -0.000000  -0.000000
    29  C   -0.000000   0.000000   0.000000   0.000000  -0.000000   0.000000
    30  H   -0.000000  -0.000000  -0.000000  -0.000002  -0.000000  -0.000000
    31  C    0.000000  -0.000000  -0.000000  -0.000000  -0.000000  -0.000000
    32  H   -0.000000   0.000000  -0.000000  -0.000000   0.000000  -0.000000
    33  H   -0.000000  -0.000000   0.000000  -0.000000  -0.000000   0.000000
    34  H    0.000000  -0.000000   0.000000  -0.000000   0.000000  -0.000000
               7          8          9         10         11         12
     1  C    0.402006  -0.039524   0.008728   0.008727  -0.039525   0.000893
     2  C   -0.038300   0.399273  -0.036086  -0.001485   0.008688   0.013094
     3  C    0.011163  -0.034572   0.401446   0.010395   0.000132  -0.053413
     4  C   -0.001761   0.010431  -0.041945  -0.041948   0.010429   0.138643
     5  C    0.011163   0.000131   0.010400   0.401453  -0.034569  -0.053415
     6  C   -0.038305   0.008688  -0.001486  -0.036085   0.399273   0.013084
     7  H    0.536045  -0.004233  -0.000248  -0.000248  -0.004233  -0.000049
     8  H   -0.004233   0.540079  -0.004027   0.000037  -0.000275  -0.000644
     9  H   -0.000248  -0.004027   0.539658  -0.000264   0.000037   0.000205
    10  H   -0.000248   0.000037  -0.000264   0.539643  -0.004027   0.000219
    11  H   -0.004233  -0.000275   0.000037  -0.004027   0.540077  -0.000644
    12  C   -0.000049  -0.000644   0.000205   0.000219  -0.000644   5.340210
    13  H    0.000000   0.000014   0.000329   0.000572  -0.000029   0.453257
    14  H    0.000000  -0.000029   0.000575   0.000328   0.000014   0.453251
    15  C    0.000006  -0.000005  -0.003492  -0.003496  -0.000005   0.169909
    16  H   -0.000000  -0.000003   0.000079   0.000914   0.000011  -0.043486
    17  H   -0.000000   0.000011   0.000914   0.000080  -0.000003  -0.043468
    18  C   -0.000000  -0.000002  -0.000144  -0.000144  -0.000002  -0.042878
    19  H   -0.000000   0.000000   0.000006   0.000035  -0.000000  -0.002510
    20  H   -0.000000  -0.000000   0.000035   0.000006   0.000000  -0.002515
    21  C    0.000000   0.000000  -0.000017  -0.000017   0.000000   0.016459
    22  H   -0.000000  -0.000000   0.000000  -0.000002   0.000000  -0.000339
    23  H   -0.000000   0.000000  -0.000002   0.000000  -0.000000  -0.000339
    24  C   -0.000000  -0.000000  -0.000002  -0.000002  -0.000000  -0.001774
    25  C    0.000000  -0.000000  -0.000000  -0.000000   0.000000  -0.000130
    26  C    0.000000   0.000000  -0.000000  -0.000000  -0.000000  -0.000130
    27  C   -0.000000   0.000000  -0.000000  -0.000000  -0.000000  -0.000000
    28  H   -0.000000  -0.000000  -0.000000  -0.000000  -0.000000  -0.000017
    29  C   -0.000000  -0.000000  -0.000000  -0.000000   0.000000  -0.000000
    30  H   -0.000000  -0.000000  -0.000000  -0.000000  -0.000000  -0.000017
    31  C    0.000000  -0.000000  -0.000000  -0.000000  -0.000000   0.000002
    32  H   -0.000000  -0.000000  -0.000000  -0.000000  -0.000000   0.000000
    33  H   -0.000000  -0.000000  -0.000000  -0.000000  -0.000000   0.000000
    34  H    0.000000  -0.000000  -0.000000  -0.000000  -0.000000   0.000000
              13         14         15         16         17         18
     1  C    0.000185   0.000185   0.000363  -0.000007  -0.000007  -0.000050
     2  C   -0.000861   0.000153  -0.000508  -0.000276  -0.000306   0.000102
     3  C    0.007618  -0.000967  -0.013092   0.003993  -0.000887  -0.000240
     4  C   -0.066150  -0.066218  -0.041908   0.000630   0.000660   0.017298
     5  C   -0.000982   0.007631  -0.013082  -0.000889   0.003992  -0.000240
     6  C    0.000150  -0.000861  -0.000502  -0.000305  -0.000277   0.000102
     7  H    0.000000   0.000000   0.000006  -0.000000  -0.000000  -0.000000
     8  H    0.000014  -0.000029  -0.000005  -0.000003   0.000011  -0.000002
     9  H    0.000329   0.000575  -0.003492   0.000079   0.000914  -0.000144
    10  H    0.000572   0.000328  -0.003496   0.000914   0.000080  -0.000144
    11  H   -0.000029   0.000014  -0.000005   0.000011  -0.000003  -0.000002
    12  C    0.453257   0.453251   0.169909  -0.043486  -0.043468  -0.042878
    13  H    0.535242  -0.024069  -0.052662  -0.000489   0.004959  -0.003971
    14  H   -0.024069   0.535245  -0.052602   0.004956  -0.000492  -0.003967
    15  C   -0.052662  -0.052602   5.363963   0.425659   0.425613   0.159321
    16  H   -0.000489   0.004956   0.425659   0.546490  -0.018020  -0.048148
    17  H    0.004959  -0.000492   0.425613  -0.018020   0.546505  -0.048137
    18  C   -0.003971  -0.003967   0.159321  -0.048148  -0.048137   5.363957
    19  H   -0.000655   0.002363  -0.048157   0.000580   0.005016   0.425650
    20  H    0.002363  -0.000654  -0.048134   0.005017   0.000578   0.425631
    21  C   -0.000340  -0.000339  -0.042882  -0.002509  -0.002517   0.169899
    22  H    0.000299  -0.000130  -0.003968  -0.000654   0.002363  -0.052630
    23  H   -0.000130   0.000299  -0.003974   0.002363  -0.000654  -0.052640
    24  C   -0.000095  -0.000095   0.017302  -0.001209  -0.001212  -0.041917
    25  C   -0.000046   0.000025  -0.000240   0.000719  -0.000275  -0.013089
    26  C    0.000025  -0.000046  -0.000241  -0.000275   0.000719  -0.013082
    27  C    0.000002  -0.000001   0.000102  -0.000011   0.000007  -0.000505
    28  H   -0.000002   0.000000  -0.000144   0.000035   0.000006  -0.003493
    29  C   -0.000001   0.000002   0.000102   0.000007  -0.000011  -0.000504
    30  H    0.000000  -0.000002  -0.000144   0.000006   0.000035  -0.003496
    31  C    0.000000   0.000000  -0.000050   0.000000   0.000000   0.000364
    32  H    0.000000  -0.000000  -0.000002  -0.000000   0.000000  -0.000005
    33  H   -0.000000   0.000000  -0.000002   0.000000  -0.000000  -0.000005
    34  H   -0.000000  -0.000000  -0.000000  -0.000000  -0.000000   0.000006
              19         20         21         22         23         24
     1  C    0.000000   0.000000   0.000002   0.000000   0.000000  -0.000000
     2  C    0.000007  -0.000011  -0.000000  -0.000001   0.000002   0.000000
     3  C   -0.000275   0.000719  -0.000130   0.000025  -0.000046  -0.000001
     4  C   -0.001211  -0.001210  -0.001774  -0.000095  -0.000095   0.000177
     5  C    0.000719  -0.000275  -0.000130  -0.000046   0.000025  -0.000001
     6  C   -0.000011   0.000007  -0.000000   0.000002  -0.000001   0.000000
     7  H   -0.000000  -0.000000   0.000000  -0.000000  -0.000000  -0.000000
     8  H    0.000000  -0.000000   0.000000  -0.000000   0.000000  -0.000000
     9  H    0.000006   0.000035  -0.000017   0.000000  -0.000002  -0.000002
    10  H    0.000035   0.000006  -0.000017  -0.000002   0.000000  -0.000002
    11  H   -0.000000   0.000000   0.000000   0.000000  -0.000000  -0.000000
    12  C   -0.002510  -0.002515   0.016459  -0.000339  -0.000339  -0.001774
    13  H   -0.000655   0.002363  -0.000340   0.000299  -0.000130  -0.000095
    14  H    0.002363  -0.000654  -0.000339  -0.000130   0.000299  -0.000095
    15  C   -0.048157  -0.048134  -0.042882  -0.003968  -0.003974   0.017302
    16  H    0.000580   0.005017  -0.002509  -0.000654   0.002363  -0.001209
    17  H    0.005016   0.000578  -0.002517   0.002363  -0.000654  -0.001212
    18  C    0.425650   0.425631   0.169899  -0.052630  -0.052640  -0.041917
    19  H    0.546502  -0.018021  -0.043484  -0.000492   0.004959   0.000647
    20  H   -0.018021   0.546503  -0.043471   0.004958  -0.000492   0.000637
    21  C   -0.043484  -0.043471   5.340215   0.453258   0.453255   0.138646
    22  H   -0.000492   0.004958   0.453258   0.535243  -0.024072  -0.066194
    23  H    0.004959  -0.000492   0.453255  -0.024072   0.535254  -0.066173
    24  C    0.000647   0.000637   0.138646  -0.066194  -0.066173   5.148263
    25  C   -0.000888   0.003992  -0.053420  -0.000971   0.007623   0.487573
    26  C    0.003992  -0.000889  -0.053413   0.007627  -0.000977   0.487512
    27  C   -0.000306  -0.000277   0.013092   0.000151  -0.000861  -0.047389
    28  H    0.000914   0.000080   0.000209   0.000575   0.000329  -0.041943
    29  C   -0.000277  -0.000305   0.013087  -0.000861   0.000151  -0.047389
    30  H    0.000080   0.000914   0.000216   0.000329   0.000574  -0.041948
    31  C   -0.000007  -0.000007   0.000893   0.000185   0.000185  -0.043075
    32  H    0.000011  -0.000003  -0.000644  -0.000029   0.000014   0.010430
    33  H   -0.000003   0.000011  -0.000644   0.000014  -0.000029   0.010430
    34  H   -0.000000  -0.000000  -0.000049   0.000000   0.000000  -0.001761
              25         26         27         28         29         30
     1  C   -0.000000  -0.000000  -0.000000  -0.000000  -0.000000  -0.000000
     2  C   -0.000000   0.000000   0.000000  -0.000000   0.000000  -0.000000
     3  C    0.000001  -0.000002  -0.000000  -0.000000   0.000000  -0.000000
     4  C   -0.000001  -0.000001   0.000000  -0.000002   0.000000  -0.000002
     5  C   -0.000002   0.000001   0.000000  -0.000000  -0.000000  -0.000000
     6  C    0.000000  -0.000000   0.000000  -0.000000   0.000000  -0.000000
     7  H    0.000000   0.000000  -0.000000  -0.000000  -0.000000  -0.000000
     8  H   -0.000000   0.000000   0.000000  -0.000000  -0.000000  -0.000000
     9  H   -0.000000  -0.000000  -0.000000  -0.000000  -0.000000  -0.000000
    10  H   -0.000000  -0.000000  -0.000000  -0.000000  -0.000000  -0.000000
    11  H    0.000000  -0.000000  -0.000000  -0.000000   0.000000  -0.000000
    12  C   -0.000130  -0.000130  -0.000000  -0.000017  -0.000000  -0.000017
    13  H   -0.000046   0.000025   0.000002  -0.000002  -0.000001   0.000000
    14  H    0.000025  -0.000046  -0.000001   0.000000   0.000002  -0.000002
    15  C   -0.000240  -0.000241   0.000102  -0.000144   0.000102  -0.000144
    16  H    0.000719  -0.000275  -0.000011   0.000035   0.000007   0.000006
    17  H   -0.000275   0.000719   0.000007   0.000006  -0.000011   0.000035
    18  C   -0.013089  -0.013082  -0.000505  -0.003493  -0.000504  -0.003496
    19  H   -0.000888   0.003992  -0.000306   0.000914  -0.000277   0.000080
    20  H    0.003992  -0.000889  -0.000277   0.000080  -0.000305   0.000914
    21  C   -0.053420  -0.053413   0.013092   0.000209   0.013087   0.000216
    22  H   -0.000971   0.007627   0.000151   0.000575  -0.000861   0.000329
    23  H    0.007623  -0.000977  -0.000861   0.000329   0.000151   0.000574
    24  C    0.487573   0.487512  -0.047389  -0.041943  -0.047389  -0.041948
    25  C    5.054130  -0.039610   0.471102   0.401451  -0.078613   0.010397
    26  C   -0.039610   5.054173  -0.078620   0.010399   0.471115   0.401450
    27  C    0.471102  -0.078620   4.941482  -0.036090  -0.046175  -0.001485
    28  H    0.401451   0.010399  -0.036090   0.539653  -0.001486  -0.000264
    29  C   -0.078613   0.471115  -0.046175  -0.001486   4.941483  -0.036082
    30  H    0.010397   0.401450  -0.001485  -0.000264  -0.036082   0.539646
    31  C   -0.054168  -0.054158   0.510424   0.008728   0.510399   0.008726
    32  H   -0.034572   0.000131   0.399273  -0.004027   0.008688   0.000037
    33  H    0.000131  -0.034567   0.008688   0.000037   0.399272  -0.004027
    34  H    0.011163   0.011163  -0.038300  -0.000248  -0.038306  -0.000248
              31         32         33         34
     1  C    0.000000  -0.000000  -0.000000   0.000000
     2  C   -0.000000   0.000000  -0.000000  -0.000000
     3  C   -0.000000  -0.000000   0.000000   0.000000
     4  C   -0.000000  -0.000000  -0.000000  -0.000000
     5  C   -0.000000   0.000000  -0.000000   0.000000
     6  C   -0.000000  -0.000000   0.000000  -0.000000
     7  H    0.000000  -0.000000  -0.000000   0.000000
     8  H   -0.000000  -0.000000  -0.000000  -0.000000
     9  H   -0.000000  -0.000000  -0.000000  -0.000000
    10  H   -0.000000  -0.000000  -0.000000  -0.000000
    11  H   -0.000000  -0.000000  -0.000000  -0.000000
    12  C    0.000002   0.000000   0.000000   0.000000
    13  H    0.000000   0.000000  -0.000000  -0.000000
    14  H    0.000000  -0.000000   0.000000  -0.000000
    15  C   -0.000050  -0.000002  -0.000002  -0.000000
    16  H    0.000000  -0.000000   0.000000  -0.000000
    17  H    0.000000   0.000000  -0.000000  -0.000000
    18  C    0.000364  -0.000005  -0.000005   0.000006
    19  H   -0.000007   0.000011  -0.000003  -0.000000
    20  H   -0.000007  -0.000003   0.000011  -0.000000
    21  C    0.000893  -0.000644  -0.000644  -0.000049
    22  H    0.000185  -0.000029   0.000014   0.000000
    23  H    0.000185   0.000014  -0.000029   0.000000
    24  C   -0.043075   0.010430   0.010430  -0.001761
    25  C   -0.054168  -0.034572   0.000131   0.011163
    26  C   -0.054158   0.000131  -0.034567   0.011163
    27  C    0.510424   0.399273   0.008688  -0.038300
    28  H    0.008728  -0.004027   0.000037  -0.000248
    29  C    0.510399   0.008688   0.399272  -0.038306
    30  H    0.008726   0.000037  -0.004027  -0.000248
    31  C    4.936937  -0.039522  -0.039527   0.402007
    32  H   -0.039522   0.540078  -0.000275  -0.004233
    33  H   -0.039527  -0.000275   0.540077  -0.004233
    34  H    0.402007  -0.004233  -0.004233   0.536045
 Mulliken charges:
               1
     1  C   -0.148336
     2  C   -0.094311
     3  C   -0.172271
     4  C    0.100567
     5  C   -0.172302
     6  C   -0.094289
     7  H    0.126994
     8  H    0.124650
     9  H    0.125299
    10  H    0.125308
    11  H    0.124652
    12  C   -0.353459
    13  H    0.145468
    14  H    0.145444
    15  C   -0.233047
    16  H    0.124822
    17  H    0.124807
    18  C   -0.233036
    19  H    0.124813
    20  H    0.124814
    21  C   -0.353449
    22  H    0.145455
    23  H    0.145454
    24  C    0.100564
    25  C   -0.172281
    26  C   -0.172298
    27  C   -0.094302
    28  H    0.125302
    29  C   -0.094295
    30  H    0.125306
    31  C   -0.148336
    32  H    0.124651
    33  H    0.124652
    34  H    0.126994
 Sum of Mulliken charges =  -0.00000
 Mulliken charges with hydrogens summed into heavy atoms:
               1
     1  C   -0.021342
     2  C    0.030339
     3  C   -0.046972
     4  C    0.100567
     5  C   -0.046994
     6  C    0.030363
    12  C   -0.062547
    15  C    0.016582
    18  C    0.016590
    21  C   -0.062541
    24  C    0.100564
    25  C   -0.046979
    26  C   -0.046992
    27  C    0.030348
    29  C    0.030357
    31  C   -0.021342
 Electronic spatial extent (au):  <R**2>=           7337.0863
 Charge=              0.0000 electrons
 Dipole moment (field-independent basis, Debye):
    X=             -0.0000    Y=              0.0000    Z=              0.0000  Tot=              0.0000
 Quadrupole moment (field-independent basis, Debye-Ang):
   XX=            -96.1332   YY=            -89.2628   ZZ=           -103.6391
   XY=             -0.0004   XZ=             -4.3523   YZ=             -0.0012
 Traceless Quadrupole moment (field-independent basis, Debye-Ang):
   XX=              0.2118   YY=              7.0823   ZZ=             -7.2940
   XY=             -0.0004   XZ=             -4.3523   YZ=             -0.0012
 Octapole moment (field-independent basis, Debye-Ang**2):
  XXX=              0.0014  YYY=             -0.0005  ZZZ=             -0.0002  XYY=              0.0000
  XXY=              0.0074  XXZ=              0.0019  XZZ=             -0.0008  YZZ=             -0.0000
  YYZ=              0.0001  XYZ=              0.0108
 Hexadecapole moment (field-independent basis, Debye-Ang**3):
 XXXX=          -8959.1196 YYYY=           -607.5318 ZZZZ=           -300.2630 XXXY=             -0.0394
 XXXZ=           -318.0463 YYYX=              0.0014 YYYZ=             -0.0029 ZZZX=              3.7168
 ZZZY=             -0.0043 XXYY=          -1542.7910 XXZZ=          -1790.5191 YYZZ=           -164.8372
 XXYZ=             -0.0164 YYXZ=             -8.5837 ZZXY=              0.0007
 N-N= 9.317638354155D+02 E-N=-3.301653310587D+03  KE= 6.174033553455D+02
 Unable to Open any file for archive entry.
 1\1\GINC-CX3-7-2\SP\RCAM-B3LYP TD-FC\TZVP\C16H18\RK820\02-Feb-2024\0\\
 # cam-b3lyp/tzvp td=(nstates=5) geom=check\\Time dependent DFT on DPB'
 s ground state to find first 5 excited states. Will be followed by Opt
  and Freq later.\\0,1\C,0,-3.2736189277,1.1210070599,-0.0381310748\C,0
 ,-2.2085507288,1.2787797932,-0.9193638376\C,0,-1.4216664431,2.42474363
 95,-0.8659789945\C,0,-1.6809924215,3.4342708341,0.0644132128\C,0,-2.75
 21698106,3.2605006885,0.9444447576\C,0,-3.5424978107,2.1167216557,0.89
 57539822\H,0,-3.8855203691,0.2280280115,-0.0755583332\H,0,-1.986681337
 6,0.5064624621,-1.6462799684\H,0,-0.5894964446,2.5351750724,-1.5530452
 699\H,0,-2.9659705593,4.0279889358,1.6806619082\H,0,-4.3656532418,2.00
 08077865,1.5907982736\C,0,-0.8497141707,4.6950955216,0.0933120713\H,0,
 -0.7960997761,5.0732949139,1.1187141367\H,0,0.1766913323,4.4622738592,
 -0.2061000364\C,0,-1.3983823656,5.8043158405,-0.8211594212\H,0,-2.4269
 481827,6.0359834979,-0.5248038291\H,0,-1.4557765855,5.4260346554,-1.84
 73387038\C,0,-0.5535543284,7.0790179592,-0.7886801037\H,0,-0.496108702
 8,7.457251713,0.2375185783\H,0,0.4749997116,6.8473193059,-1.085061792\
 C,0,-1.1022182862,8.1882147125,-1.7030561207\H,0,-2.1286388156,8.42101
 85497,-1.4036727462\H,0,-1.1558309568,7.810078116,-2.7284903193\C,0,-0
 .2709540451,9.4490578572,-1.6741365347\C,0,-0.5300282077,10.4583889007
 ,-0.743469151\C,0,0.7999968436,9.6229940102,-2.5544166927\C,0,0.256876
 4467,11.6043448158,-0.6900665795\H,0,-1.3620171117,10.3478365009,-0.05
 62035044\C,0,1.5903399924,10.7667570914,-2.5057060787\H,0,1.0135848134
 ,8.8556407439,-3.2908352834\C,0,1.3217066097,11.7622895812,-1.57154946
 26\H,0,0.0351969251,12.3765164417,0.0370620311\H,0,2.4133212155,10.882
 8150455,-3.2009327201\H,0,1.9336361094,12.6552485773,-1.5341011638\\Ve
 rsion=ES64L-G16RevC.01\State=1-A\HF=-620.3841257\RMSD=9.237e-09\PG=C01
  [X(C16H18)]\\@
 The archive entry for this job was punched.


 EXPERIENCE IS A WONDERFUL THING.  IT ENABLES
 YOU TO RECOGNIZE A MISTAKE WHEN YOU MAKE IT AGAIN.
           - BACK OF A SUGAR PACKET
 Job cpu time:       0 days  1 hours 12 minutes 56.3 seconds.
 Elapsed time:       0 days  0 hours  2 minutes 18.0 seconds.
 File lengths (MBytes):  RWF=    772 Int=      0 D2E=      0 Chk=    536 Scr=      1
 Normal termination of Gaussian 16 at Fri Feb  2 23:34:19 2024.
