 Entering Gaussian System, Link 0=g16
 Input=DPB_gs_freq_cpu.gjf
 Output=DPB_gs_freq_cpu.log
 Initial command:
 /apps/gaussian/g16-c01-avx2/g16/l1.exe "/var/tmp/pbs.8849508.pbs/Gau-2590190.inp" -scrdir="/var/tmp/pbs.8849508.pbs/"
 Entering Link 1 = /apps/gaussian/g16-c01-avx2/g16/l1.exe PID=   2590191.
  
 Copyright (c) 1988-2019, Gaussian, Inc.  All Rights Reserved.
  
 This is part of the Gaussian(R) 16 program.  It is based on
 the Gaussian(R) 09 system (copyright 2009, Gaussian, Inc.),
 the Gaussian(R) 03 system (copyright 2003, Gaussian, Inc.),
 the Gaussian(R) 98 system (copyright 1998, Gaussian, Inc.),
 the Gaussian(R) 94 system (copyright 1995, Gaussian, Inc.),
 the Gaussian 92(TM) system (copyright 1992, Gaussian, Inc.),
 the Gaussian 90(TM) system (copyright 1990, Gaussian, Inc.),
 the Gaussian 88(TM) system (copyright 1988, Gaussian, Inc.),
 the Gaussian 86(TM) system (copyright 1986, Carnegie Mellon
 University), and the Gaussian 82(TM) system (copyright 1983,
 Carnegie Mellon University). Gaussian is a federally registered
 trademark of Gaussian, Inc.
  
 This software contains proprietary and confidential information,
 including trade secrets, belonging to Gaussian, Inc.
  
 This software is provided under written license and may be
 used, copied, transmitted, or stored only in accord with that
 written license.
  
 The following legend is applicable only to US Government
 contracts under FAR:
  
                    RESTRICTED RIGHTS LEGEND
  
 Use, reproduction and disclosure by the US Government is
 subject to restrictions as set forth in subparagraphs (a)
 and (c) of the Commercial Computer Software - Restricted
 Rights clause in FAR 52.227-19.
  
 Gaussian, Inc.
 340 Quinnipiac St., Bldg. 40, Wallingford CT 06492
  
  
 ---------------------------------------------------------------
 Warning -- This program may not be used in any manner that
 competes with the business of Gaussian, Inc. or will provide
 assistance to any competitor of Gaussian, Inc.  The licensee
 of this program is prohibited from giving any competitor of
 Gaussian, Inc. access to this program.  By using this program,
 the user acknowledges that Gaussian, Inc. is engaged in the
 business of creating and licensing software in the field of
 computational chemistry and represents and warrants to the
 licensee that it is not a competitor of Gaussian, Inc. and that
 it will not use this program in any manner prohibited above.
 ---------------------------------------------------------------
  

 Cite this work as:
 Gaussian 16, Revision C.01,
 M. J. Frisch, G. W. Trucks, H. B. Schlegel, G. E. Scuseria, 
 M. A. Robb, J. R. Cheeseman, G. Scalmani, V. Barone, 
 G. A. Petersson, H. Nakatsuji, X. Li, M. Caricato, A. V. Marenich, 
 J. Bloino, B. G. Janesko, R. Gomperts, B. Mennucci, H. P. Hratchian, 
 J. V. Ortiz, A. F. Izmaylov, J. L. Sonnenberg, D. Williams-Young, 
 F. Ding, F. Lipparini, F. Egidi, J. Goings, B. Peng, A. Petrone, 
 T. Henderson, D. Ranasinghe, V. G. Zakrzewski, J. Gao, N. Rega, 
 G. Zheng, W. Liang, M. Hada, M. Ehara, K. Toyota, R. Fukuda, 
 J. Hasegawa, M. Ishida, T. Nakajima, Y. Honda, O. Kitao, H. Nakai, 
 T. Vreven, K. Throssell, J. A. Montgomery, Jr., J. E. Peralta, 
 F. Ogliaro, M. J. Bearpark, J. J. Heyd, E. N. Brothers, K. N. Kudin, 
 V. N. Staroverov, T. A. Keith, R. Kobayashi, J. Normand, 
 K. Raghavachari, A. P. Rendell, J. C. Burant, S. S. Iyengar, 
 J. Tomasi, M. Cossi, J. M. Millam, M. Klene, C. Adamo, R. Cammi, 
 J. W. Ochterski, R. L. Martin, K. Morokuma, O. Farkas, 
 J. B. Foresman, and D. J. Fox, Gaussian, Inc., Wallingford CT, 2019.
 
 ******************************************
 Gaussian 16:  ES64L-G16RevC.01  3-Jul-2019
                 2-Feb-2024 
 ******************************************
 %oldchk=/rds/general/user/rk820/home/dibs-g16/fc_ht/exercise_8-7/DPB_gs_opt_cpu.
 chk
 %chk=/rds/general/user/rk820/home/dibs-g16/fc_ht/exercise_8-7/DPB_gs_freq_cpu.ch
 k
 %NProcShared=32
 Will use up to   32 processors via shared memory.
 %Mem=110GB
 Copying data from "/rds/general/user/rk820/home/dibs-g16/fc_ht/exercise_8-7/DPB_gs_opt_cpu.chk" to current chk file "/rds/general/user/rk820/home/dibs-g16/fc_ht/exercise_8-7/DPB_gs_freq_cpu.chk"
 IOpt=  2 FromEx=T IUOpen= 4 IOptOp= 5 NList=   0 IFRang= 0 IUIn= 4 IUOut= 2.
 ----------------------------
 # B3LYP/TZVP Freq geom=check
 ----------------------------
 1/10=4,29=2,30=1,38=1/1,3;
 2/12=2,40=1/2;
 3/5=19,7=101,11=2,14=-4,25=1,30=1,71=2,74=-5,140=1/1,2,3;
 4//1;
 5/5=2,38=5,98=1/2;
 8/6=4,10=90,11=11/1;
 11/6=1,8=1,9=11,15=111,16=1/1,2,10;
 10/6=1/2;
 6/7=2,8=2,9=2,10=2,28=1/1;
 7/8=1,10=1,25=1/1,2,3,16;
 1/10=4,30=1/3;
 99//99;
 ----------------------------------------------------------------------
 Ground state calculation for DPB molecule, later to be used for excite
 d state and FC-HT analysis. Step two, frequency calculation,following 
 optimization.
 ----------------------------------------------------------------------
 Structure from the checkpoint file:  "/rds/general/user/rk820/home/dibs-g16/fc_ht/exercise_8-7/DPB_gs_freq_cpu.chk"
 Charge =  0 Multiplicity = 1
 Redundant internal coordinates found in file.  (old form).
 C,0,-3.2736189277,1.1210070599,-0.0381310748
 C,0,-2.2085507288,1.2787797932,-0.9193638376
 C,0,-1.4216664431,2.4247436395,-0.8659789945
 C,0,-1.6809924215,3.4342708341,0.0644132128
 C,0,-2.7521698106,3.2605006885,0.9444447576
 C,0,-3.5424978107,2.1167216557,0.8957539822
 H,0,-3.8855203691,0.2280280115,-0.0755583332
 H,0,-1.9866813376,0.5064624621,-1.6462799684
 H,0,-0.5894964446,2.5351750724,-1.5530452699
 H,0,-2.9659705593,4.0279889358,1.6806619082
 H,0,-4.3656532418,2.0008077865,1.5907982736
 C,0,-0.8497141707,4.6950955216,0.0933120713
 H,0,-0.7960997761,5.0732949139,1.1187141367
 H,0,0.1766913323,4.4622738592,-0.2061000364
 C,0,-1.3983823656,5.8043158405,-0.8211594212
 H,0,-2.4269481827,6.0359834979,-0.5248038291
 H,0,-1.4557765855,5.4260346554,-1.8473387038
 C,0,-0.5535543284,7.0790179592,-0.7886801037
 H,0,-0.4961087028,7.457251713,0.2375185783
 H,0,0.4749997116,6.8473193059,-1.085061792
 C,0,-1.1022182862,8.1882147125,-1.7030561207
 H,0,-2.1286388156,8.4210185497,-1.4036727462
 H,0,-1.1558309568,7.810078116,-2.7284903193
 C,0,-0.2709540451,9.4490578572,-1.6741365347
 C,0,-0.5300282077,10.4583889007,-0.743469151
 C,0,0.7999968436,9.6229940102,-2.5544166927
 C,0,0.2568764467,11.6043448158,-0.6900665795
 H,0,-1.3620171117,10.3478365009,-0.0562035044
 C,0,1.5903399924,10.7667570914,-2.5057060787
 H,0,1.0135848134,8.8556407439,-3.2908352834
 C,0,1.3217066097,11.7622895812,-1.5715494626
 H,0,0.0351969251,12.3765164417,0.0370620311
 H,0,2.4133212155,10.8828150455,-3.2009327201
 H,0,1.9336361094,12.6552485773,-1.5341011638
 Recover connectivity data from disk.

 GradGradGradGradGradGradGradGradGradGradGradGradGradGradGradGradGradGrad
 Berny optimization.
 Initialization pass.
                           ----------------------------
                           !    Initial Parameters    !
                           ! (Angstroms and Degrees)  !
 --------------------------                            --------------------------
 ! Name  Definition              Value          Derivative Info.                !
 --------------------------------------------------------------------------------
 ! R1    R(1,2)                  1.3913         calculate D2E/DX2 analytically  !
 ! R2    R(1,6)                  1.3914         calculate D2E/DX2 analytically  !
 ! R3    R(1,7)                  1.0832         calculate D2E/DX2 analytically  !
 ! R4    R(2,3)                  1.3911         calculate D2E/DX2 analytically  !
 ! R5    R(2,8)                  1.0836         calculate D2E/DX2 analytically  !
 ! R6    R(3,4)                  1.3971         calculate D2E/DX2 analytically  !
 ! R7    R(3,9)                  1.0848         calculate D2E/DX2 analytically  !
 ! R8    R(4,5)                  1.3972         calculate D2E/DX2 analytically  !
 ! R9    R(4,12)                 1.5105         calculate D2E/DX2 analytically  !
 ! R10   R(5,6)                  1.3911         calculate D2E/DX2 analytically  !
 ! R11   R(5,10)                 1.0848         calculate D2E/DX2 analytically  !
 ! R12   R(6,11)                 1.0836         calculate D2E/DX2 analytically  !
 ! R13   R(12,13)                1.0942         calculate D2E/DX2 analytically  !
 ! R14   R(12,14)                1.0942         calculate D2E/DX2 analytically  !
 ! R15   R(12,15)                1.5387         calculate D2E/DX2 analytically  !
 ! R16   R(15,16)                1.0952         calculate D2E/DX2 analytically  !
 ! R17   R(15,17)                1.0952         calculate D2E/DX2 analytically  !
 ! R18   R(15,18)                1.5296         calculate D2E/DX2 analytically  !
 ! R19   R(18,19)                1.0952         calculate D2E/DX2 analytically  !
 ! R20   R(18,20)                1.0952         calculate D2E/DX2 analytically  !
 ! R21   R(18,21)                1.5386         calculate D2E/DX2 analytically  !
 ! R22   R(21,22)                1.0942         calculate D2E/DX2 analytically  !
 ! R23   R(21,23)                1.0942         calculate D2E/DX2 analytically  !
 ! R24   R(21,24)                1.5105         calculate D2E/DX2 analytically  !
 ! R25   R(24,25)                1.3971         calculate D2E/DX2 analytically  !
 ! R26   R(24,26)                1.3972         calculate D2E/DX2 analytically  !
 ! R27   R(25,27)                1.3911         calculate D2E/DX2 analytically  !
 ! R28   R(25,28)                1.0848         calculate D2E/DX2 analytically  !
 ! R29   R(26,29)                1.3911         calculate D2E/DX2 analytically  !
 ! R30   R(26,30)                1.0848         calculate D2E/DX2 analytically  !
 ! R31   R(27,31)                1.3913         calculate D2E/DX2 analytically  !
 ! R32   R(27,32)                1.0836         calculate D2E/DX2 analytically  !
 ! R33   R(29,31)                1.3914         calculate D2E/DX2 analytically  !
 ! R34   R(29,33)                1.0836         calculate D2E/DX2 analytically  !
 ! R35   R(31,34)                1.0832         calculate D2E/DX2 analytically  !
 ! A1    A(2,1,6)              119.4655         calculate D2E/DX2 analytically  !
 ! A2    A(2,1,7)              120.2681         calculate D2E/DX2 analytically  !
 ! A3    A(6,1,7)              120.2657         calculate D2E/DX2 analytically  !
 ! A4    A(1,2,3)              120.1391         calculate D2E/DX2 analytically  !
 ! A5    A(1,2,8)              120.0542         calculate D2E/DX2 analytically  !
 ! A6    A(3,2,8)              119.806          calculate D2E/DX2 analytically  !
 ! A7    A(2,3,4)              121.0498         calculate D2E/DX2 analytically  !
 ! A8    A(2,3,9)              119.569          calculate D2E/DX2 analytically  !
 ! A9    A(4,3,9)              119.3802         calculate D2E/DX2 analytically  !
 ! A10   A(3,4,5)              118.1564         calculate D2E/DX2 analytically  !
 ! A11   A(3,4,12)             120.9125         calculate D2E/DX2 analytically  !
 ! A12   A(5,4,12)             120.9107         calculate D2E/DX2 analytically  !
 ! A13   A(4,5,6)              121.0497         calculate D2E/DX2 analytically  !
 ! A14   A(4,5,10)             119.3791         calculate D2E/DX2 analytically  !
 ! A15   A(6,5,10)             119.5702         calculate D2E/DX2 analytically  !
 ! A16   A(1,6,5)              120.1392         calculate D2E/DX2 analytically  !
 ! A17   A(1,6,11)             120.0523         calculate D2E/DX2 analytically  !
 ! A18   A(5,6,11)             119.8078         calculate D2E/DX2 analytically  !
 ! A19   A(4,12,13)            109.475          calculate D2E/DX2 analytically  !
 ! A20   A(4,12,14)            109.4744         calculate D2E/DX2 analytically  !
 ! A21   A(4,12,15)            113.211          calculate D2E/DX2 analytically  !
 ! A22   A(13,12,14)           106.4986         calculate D2E/DX2 analytically  !
 ! A23   A(13,12,15)           108.9799         calculate D2E/DX2 analytically  !
 ! A24   A(14,12,15)           108.9796         calculate D2E/DX2 analytically  !
 ! A25   A(12,15,16)           109.0596         calculate D2E/DX2 analytically  !
 ! A26   A(12,15,17)           109.0597         calculate D2E/DX2 analytically  !
 ! A27   A(12,15,18)           113.0281         calculate D2E/DX2 analytically  !
 ! A28   A(16,15,17)           106.1047         calculate D2E/DX2 analytically  !
 ! A29   A(16,15,18)           109.6756         calculate D2E/DX2 analytically  !
 ! A30   A(17,15,18)           109.6751         calculate D2E/DX2 analytically  !
 ! A31   A(15,18,19)           109.6744         calculate D2E/DX2 analytically  !
 ! A32   A(15,18,20)           109.6737         calculate D2E/DX2 analytically  !
 ! A33   A(15,18,21)           113.0287         calculate D2E/DX2 analytically  !
 ! A34   A(19,18,20)           106.1036         calculate D2E/DX2 analytically  !
 ! A35   A(19,18,21)           109.061          calculate D2E/DX2 analytically  !
 ! A36   A(20,18,21)           109.0613         calculate D2E/DX2 analytically  !
 ! A37   A(18,21,22)           108.9817         calculate D2E/DX2 analytically  !
 ! A38   A(18,21,23)           108.9811         calculate D2E/DX2 analytically  !
 ! A39   A(18,21,24)           113.2116         calculate D2E/DX2 analytically  !
 ! A40   A(22,21,23)           106.4964         calculate D2E/DX2 analytically  !
 ! A41   A(22,21,24)           109.4747         calculate D2E/DX2 analytically  !
 ! A42   A(23,21,24)           109.4729         calculate D2E/DX2 analytically  !
 ! A43   A(21,24,25)           120.9128         calculate D2E/DX2 analytically  !
 ! A44   A(21,24,26)           120.9099         calculate D2E/DX2 analytically  !
 ! A45   A(25,24,26)           118.1568         calculate D2E/DX2 analytically  !
 ! A46   A(24,25,27)           121.0495         calculate D2E/DX2 analytically  !
 ! A47   A(24,25,28)           119.3811         calculate D2E/DX2 analytically  !
 ! A48   A(27,25,28)           119.5684         calculate D2E/DX2 analytically  !
 ! A49   A(24,26,29)           121.0495         calculate D2E/DX2 analytically  !
 ! A50   A(24,26,30)           119.3782         calculate D2E/DX2 analytically  !
 ! A51   A(29,26,30)           119.5713         calculate D2E/DX2 analytically  !
 ! A52   A(25,27,31)           120.1391         calculate D2E/DX2 analytically  !
 ! A53   A(25,27,32)           119.8057         calculate D2E/DX2 analytically  !
 ! A54   A(31,27,32)           120.0545         calculate D2E/DX2 analytically  !
 ! A55   A(26,29,31)           120.1391         calculate D2E/DX2 analytically  !
 ! A56   A(26,29,33)           119.8086         calculate D2E/DX2 analytically  !
 ! A57   A(31,29,33)           120.0516         calculate D2E/DX2 analytically  !
 ! A58   A(27,31,29)           119.4657         calculate D2E/DX2 analytically  !
 ! A59   A(27,31,34)           120.2685         calculate D2E/DX2 analytically  !
 ! A60   A(29,31,34)           120.2652         calculate D2E/DX2 analytically  !
 ! D1    D(6,1,2,3)             -0.0855         calculate D2E/DX2 analytically  !
 ! D2    D(6,1,2,8)            179.6076         calculate D2E/DX2 analytically  !
 ! D3    D(7,1,2,3)           -179.7853         calculate D2E/DX2 analytically  !
 ! D4    D(7,1,2,8)             -0.0922         calculate D2E/DX2 analytically  !
 ! D5    D(2,1,6,5)              0.0853         calculate D2E/DX2 analytically  !
 ! D6    D(2,1,6,11)          -179.607          calculate D2E/DX2 analytically  !
 ! D7    D(7,1,6,5)            179.7851         calculate D2E/DX2 analytically  !
 ! D8    D(7,1,6,11)             0.0928         calculate D2E/DX2 analytically  !
 ! D9    D(1,2,3,4)             -0.0411         calculate D2E/DX2 analytically  !
 ! D10   D(1,2,3,9)            179.5921         calculate D2E/DX2 analytically  !
 ! D11   D(8,2,3,4)           -179.735          calculate D2E/DX2 analytically  !
 ! D12   D(8,2,3,9)             -0.1018         calculate D2E/DX2 analytically  !
 ! D13   D(2,3,4,5)              0.1641         calculate D2E/DX2 analytically  !
 ! D14   D(2,3,4,12)          -178.2083         calculate D2E/DX2 analytically  !
 ! D15   D(9,3,4,5)           -179.4698         calculate D2E/DX2 analytically  !
 ! D16   D(9,3,4,12)             2.1578         calculate D2E/DX2 analytically  !
 ! D17   D(3,4,5,6)             -0.1643         calculate D2E/DX2 analytically  !
 ! D18   D(3,4,5,10)           179.4696         calculate D2E/DX2 analytically  !
 ! D19   D(12,4,5,6)           178.2081         calculate D2E/DX2 analytically  !
 ! D20   D(12,4,5,10)           -2.158          calculate D2E/DX2 analytically  !
 ! D21   D(3,4,12,13)         -149.0088         calculate D2E/DX2 analytically  !
 ! D22   D(3,4,12,14)          -32.614          calculate D2E/DX2 analytically  !
 ! D23   D(3,4,12,15)           89.1881         calculate D2E/DX2 analytically  !
 ! D24   D(5,4,12,13)           32.6637         calculate D2E/DX2 analytically  !
 ! D25   D(5,4,12,14)          149.0585         calculate D2E/DX2 analytically  !
 ! D26   D(5,4,12,15)          -89.1393         calculate D2E/DX2 analytically  !
 ! D27   D(4,5,6,1)              0.0415         calculate D2E/DX2 analytically  !
 ! D28   D(4,5,6,11)           179.7346         calculate D2E/DX2 analytically  !
 ! D29   D(10,5,6,1)          -179.5917         calculate D2E/DX2 analytically  !
 ! D30   D(10,5,6,11)            0.1014         calculate D2E/DX2 analytically  !
 ! D31   D(4,12,15,16)          57.7284         calculate D2E/DX2 analytically  !
 ! D32   D(4,12,15,17)         -57.7308         calculate D2E/DX2 analytically  !
 ! D33   D(4,12,15,18)         179.999          calculate D2E/DX2 analytically  !
 ! D34   D(13,12,15,16)        -64.3516         calculate D2E/DX2 analytically  !
 ! D35   D(13,12,15,17)       -179.8109         calculate D2E/DX2 analytically  !
 ! D36   D(13,12,15,18)         57.919          calculate D2E/DX2 analytically  !
 ! D37   D(14,12,15,16)        179.8074         calculate D2E/DX2 analytically  !
 ! D38   D(14,12,15,17)         64.3482         calculate D2E/DX2 analytically  !
 ! D39   D(14,12,15,18)        -57.922          calculate D2E/DX2 analytically  !
 ! D40   D(12,15,18,19)        -58.0708         calculate D2E/DX2 analytically  !
 ! D41   D(12,15,18,20)         58.0758         calculate D2E/DX2 analytically  !
 ! D42   D(12,15,18,21)       -179.9975         calculate D2E/DX2 analytically  !
 ! D43   D(16,15,18,19)         63.8546         calculate D2E/DX2 analytically  !
 ! D44   D(16,15,18,20)       -179.9988         calculate D2E/DX2 analytically  !
 ! D45   D(16,15,18,21)        -58.0721         calculate D2E/DX2 analytically  !
 ! D46   D(17,15,18,19)       -179.996          calculate D2E/DX2 analytically  !
 ! D47   D(17,15,18,20)        -63.8494         calculate D2E/DX2 analytically  !
 ! D48   D(17,15,18,21)         58.0772         calculate D2E/DX2 analytically  !
 ! D49   D(15,18,21,22)         57.9184         calculate D2E/DX2 analytically  !
 ! D50   D(15,18,21,23)        -57.9218         calculate D2E/DX2 analytically  !
 ! D51   D(15,18,21,24)        179.9997         calculate D2E/DX2 analytically  !
 ! D52   D(19,18,21,22)        -64.3521         calculate D2E/DX2 analytically  !
 ! D53   D(19,18,21,23)        179.8077         calculate D2E/DX2 analytically  !
 ! D54   D(19,18,21,24)         57.7292         calculate D2E/DX2 analytically  !
 ! D55   D(20,18,21,22)       -179.8117         calculate D2E/DX2 analytically  !
 ! D56   D(20,18,21,23)         64.3481         calculate D2E/DX2 analytically  !
 ! D57   D(20,18,21,24)        -57.7304         calculate D2E/DX2 analytically  !
 ! D58   D(18,21,24,25)        -89.17           calculate D2E/DX2 analytically  !
 ! D59   D(18,21,24,26)         89.1552         calculate D2E/DX2 analytically  !
 ! D60   D(22,21,24,25)         32.6356         calculate D2E/DX2 analytically  !
 ! D61   D(22,21,24,26)       -149.0393         calculate D2E/DX2 analytically  !
 ! D62   D(23,21,24,25)        149.0267         calculate D2E/DX2 analytically  !
 ! D63   D(23,21,24,26)        -32.6482         calculate D2E/DX2 analytically  !
 ! D64   D(21,24,25,27)        178.2069         calculate D2E/DX2 analytically  !
 ! D65   D(21,24,25,28)         -2.1601         calculate D2E/DX2 analytically  !
 ! D66   D(26,24,25,27)         -0.1633         calculate D2E/DX2 analytically  !
 ! D67   D(26,24,25,28)        179.4697         calculate D2E/DX2 analytically  !
 ! D68   D(21,24,26,29)       -178.2065         calculate D2E/DX2 analytically  !
 ! D69   D(21,24,26,30)          2.1597         calculate D2E/DX2 analytically  !
 ! D70   D(25,24,26,29)          0.1636         calculate D2E/DX2 analytically  !
 ! D71   D(25,24,26,30)       -179.4701         calculate D2E/DX2 analytically  !
 ! D72   D(24,25,27,31)          0.0407         calculate D2E/DX2 analytically  !
 ! D73   D(24,25,27,32)        179.7344         calculate D2E/DX2 analytically  !
 ! D74   D(28,25,27,31)       -179.5916         calculate D2E/DX2 analytically  !
 ! D75   D(28,25,27,32)          0.1021         calculate D2E/DX2 analytically  !
 ! D76   D(24,26,29,31)         -0.0415         calculate D2E/DX2 analytically  !
 ! D77   D(24,26,29,33)       -179.7349         calculate D2E/DX2 analytically  !
 ! D78   D(30,26,29,31)        179.5916         calculate D2E/DX2 analytically  !
 ! D79   D(30,26,29,33)         -0.1019         calculate D2E/DX2 analytically  !
 ! D80   D(25,27,31,29)          0.0854         calculate D2E/DX2 analytically  !
 ! D81   D(25,27,31,34)        179.7865         calculate D2E/DX2 analytically  !
 ! D82   D(32,27,31,29)       -179.6076         calculate D2E/DX2 analytically  !
 ! D83   D(32,27,31,34)          0.0936         calculate D2E/DX2 analytically  !
 ! D84   D(26,29,31,27)         -0.085          calculate D2E/DX2 analytically  !
 ! D85   D(26,29,31,34)       -179.7861         calculate D2E/DX2 analytically  !
 ! D86   D(33,29,31,27)        179.6078         calculate D2E/DX2 analytically  !
 ! D87   D(33,29,31,34)         -0.0934         calculate D2E/DX2 analytically  !
 --------------------------------------------------------------------------------
 Trust Radius=3.00D-01 FncErr=1.00D-07 GrdErr=1.00D-07 EigMax=2.50D+02 EigMin=1.00D-04
 Number of steps in this run=      2 maximum allowed number of steps=      2.
 GradGradGradGradGradGradGradGradGradGradGradGradGradGradGradGradGradGrad

                          Input orientation:                          
 ---------------------------------------------------------------------
 Center     Atomic      Atomic             Coordinates (Angstroms)
 Number     Number       Type             X           Y           Z
 ---------------------------------------------------------------------
      1          6           0       -3.273619    1.121007   -0.038131
      2          6           0       -2.208551    1.278780   -0.919364
      3          6           0       -1.421666    2.424744   -0.865979
      4          6           0       -1.680992    3.434271    0.064413
      5          6           0       -2.752170    3.260501    0.944445
      6          6           0       -3.542498    2.116722    0.895754
      7          1           0       -3.885520    0.228028   -0.075558
      8          1           0       -1.986681    0.506462   -1.646280
      9          1           0       -0.589496    2.535175   -1.553045
     10          1           0       -2.965971    4.027989    1.680662
     11          1           0       -4.365653    2.000808    1.590798
     12          6           0       -0.849714    4.695096    0.093312
     13          1           0       -0.796100    5.073295    1.118714
     14          1           0        0.176691    4.462274   -0.206100
     15          6           0       -1.398382    5.804316   -0.821159
     16          1           0       -2.426948    6.035983   -0.524804
     17          1           0       -1.455777    5.426035   -1.847339
     18          6           0       -0.553554    7.079018   -0.788680
     19          1           0       -0.496109    7.457252    0.237519
     20          1           0        0.475000    6.847319   -1.085062
     21          6           0       -1.102218    8.188215   -1.703056
     22          1           0       -2.128639    8.421019   -1.403673
     23          1           0       -1.155831    7.810078   -2.728490
     24          6           0       -0.270954    9.449058   -1.674137
     25          6           0       -0.530028   10.458389   -0.743469
     26          6           0        0.799997    9.622994   -2.554417
     27          6           0        0.256876   11.604345   -0.690067
     28          1           0       -1.362017   10.347837   -0.056204
     29          6           0        1.590340   10.766757   -2.505706
     30          1           0        1.013585    8.855641   -3.290835
     31          6           0        1.321707   11.762290   -1.571549
     32          1           0        0.035197   12.376516    0.037062
     33          1           0        2.413321   10.882815   -3.200933
     34          1           0        1.933636   12.655249   -1.534101
 ---------------------------------------------------------------------
                    Distance matrix (angstroms):
                    1          2          3          4          5
     1  C    0.000000
     2  C    1.391342   0.000000
     3  C    2.411387   1.391140   0.000000
     4  C    2.810367   2.427401   1.397149   0.000000
     5  C    2.411389   2.774261   2.397157   1.397166   0.000000
     6  C    1.391361   2.403376   2.774258   2.427399   1.391122
     7  H    1.083160   2.151352   3.394245   3.893524   3.394228
     8  H    2.149422   1.083562   2.146605   3.404700   3.857791
     9  H    3.391069   2.145092   1.084787   2.148467   3.382412
    10  H    3.391082   3.859011   3.382403   2.148472   1.084788
    11  H    2.149418   3.387526   3.857789   3.404713   2.146608
    12  C    4.320498   3.813550   2.530191   1.510476   2.530183
    13  H    4.805931   4.532894   3.368258   2.140324   2.672602
    14  H    4.805925   4.041381   2.672399   2.140317   3.368418
    15  C    5.105196   4.598532   3.379950   2.545824   3.379511
    16  H    5.011057   4.778531   3.764046   2.769934   3.157177
    17  H    5.011092   4.315962   3.157844   2.769953   3.763539
    18  C    6.592418   6.033146   4.735173   3.909356   4.734840
    19  H    6.923766   6.514933   5.234549   4.197415   4.816874
    20  H    6.923789   6.183650   4.817107   4.197439   5.234385
    21  C    7.578415   7.041196   5.832696   5.104793   5.832149
    22  H    7.514376   7.159086   6.061703   5.217597   5.703805
    23  H    7.514435   6.858499   5.704511   5.217643   6.061139
    24  C    9.002718   8.430742   7.163676   6.417821   7.163214
    25  C    9.757638   9.333467   8.083903   7.163493   7.719881
    26  C    9.757552   9.019460   7.720195   7.163370   8.083393
    27  C   11.081055  10.618296   9.333463   8.430580   9.019186
    28  H    9.422788   9.149287   7.964590   6.921971   7.291375
    29  C   11.080953  10.342619   9.019428   8.430450   9.332996
    30  H    9.422566   8.568247   7.291558   6.921683   7.963925
    31  C   11.692103  11.081157   9.757750   9.002692   9.757413
    32  H   11.732025  11.362610  10.098303   9.105482   9.575725
    33  H   11.731901  10.899759   9.575913   9.105312  10.097828
    34  H   12.743318  12.122692  10.787385  10.032309  10.787087
                    6          7          8          9         10
     6  C    0.000000
     7  H    2.151343   0.000000
     8  H    3.387541   2.479976   0.000000
     9  H    3.859007   4.285985   2.465054   0.000000
    10  H    2.145089   4.285975   4.942540   4.281703   0.000000
    11  H    1.083562   2.479923   4.286170   4.942536   2.465086
    12  C    3.813530   5.403640   4.675844   2.728271   2.728232
    13  H    4.041502   5.869192   5.469793   3.690940   2.473214
    14  H    4.532997   5.869194   4.733154   2.472856   3.691178
    15  C    4.598192   6.151159   5.393901   3.446336   3.445545
    16  H    4.315443   6.005131   5.659253   4.085238   3.030951
    17  H    4.778129   6.005176   4.952219   3.032181   4.084361
    18  C    6.032867   7.651575   6.781432   4.607825   4.607188
    19  H    6.183447   7.990482   7.354181   5.238481   4.465728
    20  H    6.514789   7.990510   6.825050   4.466178   5.238142
    21  C    7.040725   8.588370   7.732711   5.678225   5.677200
    22  H    6.857880   8.483844   7.919546   6.085592   5.432583
    23  H    7.158606   8.483910   7.429959   5.433876   6.084524
    24  C    8.430332  10.032344   9.105740   6.922276   6.921400
    25  C    9.019171  10.787294  10.098403   7.964689   7.291109
    26  C    9.333009  10.787224   9.576087   7.291818   7.963823
    27  C   10.342392  12.122609  11.362697   9.149367   8.567862
    28  H    8.568079  10.429716   9.988553   7.992184   6.747580
    29  C   10.617865  12.122519  10.899878   8.568442   9.148587
    30  H    9.148686  10.429522   9.023023   6.748190   7.991174
    31  C   11.080842  12.743327  11.732206   9.422987   9.422338
    32  H   10.899571  12.765989  12.158117   9.988528   9.022546
    33  H   11.362175  12.765886  11.377419   9.023056   9.987762
    34  H   12.122409  13.799483  12.766146  10.429882  10.429308
                   11         12         13         14         15
    11  H    0.000000
    12  C    4.675840   0.000000
    13  H    4.733366   1.094239   0.000000
    14  H    5.469968   1.094240   1.753511   0.000000
    15  C    5.393414   1.538722   2.158760   2.158757   0.000000
    16  H    4.951464   2.160490   2.507506   3.058933   1.095191
    17  H    5.658652   2.160488   3.058933   2.507479   1.095187
    18  C    6.781020   2.559044   2.778472   2.778490   1.529593
    19  H    6.824773   2.788430   2.559248   3.101508   2.160346
    20  H    7.353966   2.788458   3.101529   2.559297   2.160338
    21  C    7.731978   3.936061   4.214122   4.214157   2.558990
    22  H    7.429010   4.214156   4.398335   4.735017   2.778440
    23  H    7.918765   4.214189   4.735015   4.398393   2.778457
    24  C    9.105097   5.104801   5.217576   5.217617   3.909323
    25  C    9.575568   5.832491   5.704188   6.061486   4.735026
    26  C   10.097746   5.832341   6.061285   5.704045   4.734908
    27  C   10.899452   7.041019   6.858211   7.158899   6.033026
    28  H    9.022601   5.677877   5.433368   6.085223   4.607609
    29  C   11.362089   7.040869   7.158703   6.858068   6.032908
    30  H    9.987757   5.677541   6.084836   5.433015   4.607328
    31  C   11.731711   7.578395   7.514338   7.514369   6.592376
    32  H   11.377034   7.732429   7.429540   7.919241   6.781262
    33  H   12.157518   7.732226   7.918981   7.429326   6.781118
    34  H   12.765702   8.588338   8.483803   8.483824   7.651530
                   16         17         18         19         20
    16  H    0.000000
    17  H    1.750517   0.000000
    18  C    2.160360   2.160351   0.000000
    19  H    2.515806   3.064871   1.095192   0.000000
    20  H    3.064875   2.515753   1.095194   1.750511   0.000000
    21  C    2.788420   2.788451   1.538647   2.160441   2.160448
    22  H    2.559256   3.101534   2.158720   2.507491   3.058917
    23  H    3.101513   2.559308   2.158715   3.058910   2.507463
    24  C    4.197422   4.197442   2.545778   2.769912   2.769928
    25  C    4.817031   5.234513   3.379755   3.157580   3.763853
    26  C    5.234419   4.816943   3.379607   3.763673   3.157372
    27  C    6.183597   6.514904   4.598381   4.315760   4.778377
    28  H    4.466065   5.238424   3.446057   3.031757   4.084948
    29  C    6.514814   6.183493   4.598248   4.778219   4.315577
    30  H    5.238193   4.465829   3.445736   4.084599   3.031314
    31  C    6.923776   6.923771   5.105147   5.011041   5.011039
    32  H    6.824970   7.354126   5.393697   4.951932   5.659029
    33  H    7.354023   6.824851   5.393532   5.658817   4.951689
    34  H    7.990497   7.990480   6.151107   6.005120   6.005106
                   21         22         23         24         25
    21  C    0.000000
    22  H    1.094243   0.000000
    23  H    1.094247   1.753495   0.000000
    24  C    1.510484   2.140329   2.140309   0.000000
    25  C    2.530198   2.672509   3.368306   1.397144   0.000000
    26  C    2.530184   3.368362   2.672495   1.397170   2.397161
    27  C    3.813559   4.041470   4.532921   2.427398   1.391145
    28  H    2.728293   2.473057   3.691050   2.148471   1.084786
    29  C    3.813528   4.532965   4.041415   2.427397   2.774262
    30  H    2.728209   3.691050   2.473014   2.148464   3.382398
    31  C    4.320500   4.805950   4.805901   2.810362   2.411389
    32  H    4.675852   4.733272   5.469843   3.404694   2.146607
    33  H    4.675845   5.469916   4.733261   3.404717   3.857793
    34  H    5.403642   5.869224   5.869161   3.893519   3.394250
                   26         27         28         29         30
    26  C    0.000000
    27  C    2.774262   0.000000
    28  H    3.382421   2.145090   0.000000
    29  C    1.391118   2.403378   3.859012   0.000000
    30  H    1.084787   3.859013   4.281702   2.145097   0.000000
    31  C    2.411389   1.391338   3.391065   1.391365   3.391090
    32  H    3.857793   1.083562   2.465045   3.387546   4.942541
    33  H    2.146613   3.387522   4.942540   1.083562   2.465113
    34  H    3.394223   2.151352   4.285984   2.151341   4.285980
                   31         32         33         34
    31  C    0.000000
    32  H    2.149421   0.000000
    33  H    2.149416   4.286167   0.000000
    34  H    1.083160   2.479983   2.479908   0.000000
 Stoichiometry    C16H18
 Framework group  C1[X(C16H18)]
 Deg. of freedom    96
 Full point group                 C1      NOp   1
 Largest Abelian subgroup         C1      NOp   1
 Largest concise Abelian subgroup C1      NOp   1
                         Standard orientation:                         
 ---------------------------------------------------------------------
 Center     Atomic      Atomic             Coordinates (Angstroms)
 Number     Number       Type             X           Y           Z
 ---------------------------------------------------------------------
      1          6           0        5.830871   -0.000199   -0.421125
      2          6           0        5.167842    1.201572   -0.193153
      3          6           0        3.851630    1.198644    0.257234
      4          6           0        3.171591    0.000166    0.487937
      5          6           0        3.851260   -1.198514    0.257094
      6          6           0        5.167452   -1.201803   -0.193292
      7          1           0        6.856822   -0.000364   -0.768487
      8          1           0        5.677448    2.142908   -0.361368
      9          1           0        3.345709    2.140991    0.438309
     10          1           0        3.345025   -2.140713    0.438069
     11          1           0        5.676793   -2.143262   -0.361620
     12          6           0        1.729866    0.000344    0.938454
     13          1           0        1.543798   -0.876186    1.566493
     14          1           0        1.543832    0.877326    1.565876
     15          6           0        0.729236   -0.000043   -0.230479
     16          1           0        0.916527   -0.875512   -0.861288
     17          1           0        0.916523    0.875005   -0.861866
     18          6           0       -0.729273    0.000115    0.230397
     19          1           0       -0.916531   -0.874902    0.861843
     20          1           0       -0.916536    0.875609    0.861185
     21          6           0       -1.729866   -0.000333   -0.938469
     22          1           0       -1.543816   -0.877295   -1.565917
     23          1           0       -1.543862    0.876200   -1.566536
     24          6           0       -3.171600   -0.000185   -0.487952
     25          6           0       -3.851494   -1.198662   -0.256853
     26          6           0       -3.851389    1.198499   -0.257464
     27          6           0       -5.167702   -1.201590    0.193562
     28          1           0       -3.345488   -2.141017   -0.437646
     29          6           0       -5.167568    1.201788    0.192949
     30          1           0       -3.345243    2.140685   -0.438749
     31          6           0       -5.830854    0.000178    0.421168
     32          1           0       -5.677200   -2.142930    0.362079
     33          1           0       -5.677015    2.143237    0.361007
     34          1           0       -6.856792    0.000350    0.768568
 ---------------------------------------------------------------------
 Rotational constants (GHZ):           2.1582694           0.1455865           0.1403803
 Standard basis: TZVP (5D, 7F)
 There are   428 symmetry adapted cartesian basis functions of A   symmetry.
 There are   412 symmetry adapted basis functions of A   symmetry.
   412 basis functions,   704 primitive gaussians,   428 cartesian basis functions
    57 alpha electrons       57 beta electrons
       nuclear repulsion energy       931.7638354155 Hartrees.
 NAtoms=   34 NActive=   34 NUniq=   34 SFac= 1.00D+00 NAtFMM=   60 NAOKFM=F Big=F
 Integral buffers will be    131072 words long.
 Raffenetti 2 integral format.
 Two-electron integral symmetry is turned on.
 One-electron integrals computed using PRISM.
 NBasis=   412 RedAO= T EigKep=  8.96D-06  NBF=   412
 NBsUse=   412 1.00D-06 EigRej= -1.00D+00 NBFU=   412
 ExpMin= 9.52D-02 ExpMax= 1.36D+04 ExpMxC= 4.63D+02 IAcc=3 IRadAn=         5 AccDes= 0.00D+00
 Harris functional with IExCor=  402 and IRadAn=       5 diagonalized for initial guess.
 HarFok:  IExCor=  402 AccDes= 0.00D+00 IRadAn=         5 IDoV= 1 UseB2=F ITyADJ=14
 ICtDFT=  3500011 ScaDFX=  1.000000  1.000000  1.000000  1.000000
 FoFCou: FMM=F IPFlag=           0 FMFlag=      100000 FMFlg1=           0
         NFxFlg=           0 DoJE=T BraDBF=F KetDBF=T FulRan=T
         wScrn=  0.000000 ICntrl=       500 IOpCl=  0 I1Cent=   200000004 NGrid=           0
         NMat0=    1 NMatS0=      1 NMatT0=    0 NMatD0=    1 NMtDS0=    0 NMtDT0=    0
 Petite list used in FoFCou.
 Requested convergence on RMS density matrix=1.00D-08 within 128 cycles.
 Requested convergence on MAX density matrix=1.00D-06.
 Requested convergence on             energy=1.00D-06.
 No special actions if energy rises.
 Integral accuracy reduced to 1.0D-05 until final iterations.
 Initial convergence to 1.0D-05 achieved.  Increase integral accuracy.
 SCF Done:  E(RB3LYP) =  -620.762218466     A.U. after   18 cycles
            NFock= 18  Conv=0.60D-08     -V/T= 2.0053
 DoSCS=F DFT=T ScalE2(SS,OS)=  1.000000  1.000000
 Range of M.O.s used for correlation:     1   412
 NBasis=   412 NAE=    57 NBE=    57 NFC=     0 NFV=     0
 NROrb=    412 NOA=    57 NOB=    57 NVA=   355 NVB=   355

 **** Warning!!: The largest alpha MO coefficient is  0.59190495D+02

 Symmetrizing basis deriv contribution to polar:
 IMax=3 JMax=2 DiffMx= 0.00D+00
 G2DrvN: will do    35 centers at a time, making    1 passes.
 Calling FoFCou, ICntrl=  3107 FMM=F I1Cent=   0 AccDes= 0.00D+00.
 End of G2Drv F.D. properties file   721 does not exist.
 End of G2Drv F.D. properties file   722 does not exist.
 End of G2Drv F.D. properties file   788 does not exist.
          IDoAtm=1111111111111111111111111111111111
          Differentiating once with respect to electric field.
                with respect to dipole field.
          Differentiating once with respect to nuclear coordinates.
 CalDSu exits because no D1Ps are significant.
          There are   105 degrees of freedom in the 1st order CPHF.  IDoFFX=6 NUNeed=     3.
    102 vectors produced by pass  0 Test12= 2.02D-14 1.00D-09 XBig12= 2.26D+02 7.35D+00.
 AX will form   102 AO Fock derivatives at one time.
    102 vectors produced by pass  1 Test12= 2.02D-14 1.00D-09 XBig12= 4.39D+01 1.15D+00.
    102 vectors produced by pass  2 Test12= 2.02D-14 1.00D-09 XBig12= 3.55D-01 8.49D-02.
    102 vectors produced by pass  3 Test12= 2.02D-14 1.00D-09 XBig12= 1.26D-03 2.98D-03.
    102 vectors produced by pass  4 Test12= 2.02D-14 1.00D-09 XBig12= 2.36D-06 1.93D-04.
     87 vectors produced by pass  5 Test12= 2.02D-14 1.00D-09 XBig12= 3.03D-09 4.69D-06.
     11 vectors produced by pass  6 Test12= 2.02D-14 1.00D-09 XBig12= 3.65D-12 1.79D-07.
      3 vectors produced by pass  7 Test12= 2.02D-14 1.00D-09 XBig12= 7.03D-15 1.20D-08.
      3 vectors produced by pass  8 Test12= 2.02D-14 1.00D-09 XBig12= 4.48D-15 1.55D-08.
      3 vectors produced by pass  9 Test12= 2.02D-14 1.00D-09 XBig12= 1.28D-14 3.06D-08.
      3 vectors produced by pass 10 Test12= 2.02D-14 1.00D-09 XBig12= 3.70D-14 4.07D-08.
      3 vectors produced by pass 11 Test12= 2.02D-14 1.00D-09 XBig12= 1.06D-14 1.44D-08.
      2 vectors produced by pass 12 Test12= 2.02D-14 1.00D-09 XBig12= 7.67D-15 1.87D-08.
 InvSVY:  IOpt=1 It=  1 EMax= 8.88D-15
 Solved reduced A of dimension   625 with   105 vectors.
 Isotropic polarizability for W=    0.000000      181.54 Bohr**3.
 End of Minotr F.D. properties file   721 does not exist.
 End of Minotr F.D. properties file   722 does not exist.
 End of Minotr F.D. properties file   788 does not exist.

 **********************************************************************

            Population analysis using the SCF Density.

 **********************************************************************

 Orbital symmetries:
       Occupied  (A) (A) (A) (A) (A) (A) (A) (A) (A) (A) (A) (A)
                 (A) (A) (A) (A) (A) (A) (A) (A) (A) (A) (A) (A)
                 (A) (A) (A) (A) (A) (A) (A) (A) (A) (A) (A) (A)
                 (A) (A) (A) (A) (A) (A) (A) (A) (A) (A) (A) (A)
                 (A) (A) (A) (A) (A) (A) (A) (A) (A)
       Virtual   (A) (A) (A) (A) (A) (A) (A) (A) (A) (A) (A) (A)
                 (A) (A) (A) (A) (A) (A) (A) (A) (A) (A) (A) (A)
                 (A) (A) (A) (A) (A) (A) (A) (A) (A) (A) (A) (A)
                 (A) (A) (A) (A) (A) (A) (A) (A) (A) (A) (A) (A)
                 (A) (A) (A) (A) (A) (A) (A) (A) (A) (A) (A) (A)
                 (A) (A) (A) (A) (A) (A) (A) (A) (A) (A) (A) (A)
                 (A) (A) (A) (A) (A) (A) (A) (A) (A) (A) (A) (A)
                 (A) (A) (A) (A) (A) (A) (A) (A) (A) (A) (A) (A)
                 (A) (A) (A) (A) (A) (A) (A) (A) (A) (A) (A) (A)
                 (A) (A) (A) (A) (A) (A) (A) (A) (A) (A) (A) (A)
                 (A) (A) (A) (A) (A) (A) (A) (A) (A) (A) (A) (A)
                 (A) (A) (A) (A) (A) (A) (A) (A) (A) (A) (A) (A)
                 (A) (A) (A) (A) (A) (A) (A) (A) (A) (A) (A) (A)
                 (A) (A) (A) (A) (A) (A) (A) (A) (A) (A) (A) (A)
                 (A) (A) (A) (A) (A) (A) (A) (A) (A) (A) (A) (A)
                 (A) (A) (A) (A) (A) (A) (A) (A) (A) (A) (A) (A)
                 (A) (A) (A) (A) (A) (A) (A) (A) (A) (A) (A) (A)
                 (A) (A) (A) (A) (A) (A) (A) (A) (A) (A) (A) (A)
                 (A) (A) (A) (A) (A) (A) (A) (A) (A) (A) (A) (A)
                 (A) (A) (A) (A) (A) (A) (A) (A) (A) (A) (A) (A)
                 (A) (A) (A) (A) (A) (A) (A) (A) (A) (A) (A) (A)
                 (A) (A) (A) (A) (A) (A) (A) (A) (A) (A) (A) (A)
                 (A) (A) (A) (A) (A) (A) (A) (A) (A) (A) (A) (A)
                 (A) (A) (A) (A) (A) (A) (A) (A) (A) (A) (A) (A)
                 (A) (A) (A) (A) (A) (A) (A) (A) (A) (A) (A) (A)
                 (A) (A) (A) (A) (A) (A) (A) (A) (A) (A) (A) (A)
                 (A) (A) (A) (A) (A) (A) (A) (A) (A) (A) (A) (A)
                 (A) (A) (A) (A) (A) (A) (A) (A) (A) (A) (A) (A)
                 (A) (A) (A) (A) (A) (A) (A) (A) (A) (A) (A) (A)
                 (A) (A) (A) (A) (A) (A) (A)
 The electronic state is 1-A.
 Alpha  occ. eigenvalues --  -10.18262 -10.18262 -10.17532 -10.17532 -10.17526
 Alpha  occ. eigenvalues --  -10.17525 -10.17459 -10.17459 -10.17339 -10.17339
 Alpha  occ. eigenvalues --  -10.17319 -10.17319 -10.17315 -10.17315 -10.17099
 Alpha  occ. eigenvalues --  -10.17078  -0.86303  -0.86172  -0.81182  -0.78283
 Alpha  occ. eigenvalues --   -0.74843  -0.74818  -0.74817  -0.70478  -0.65012
 Alpha  occ. eigenvalues --   -0.60898  -0.60875  -0.60035  -0.58043  -0.57886
 Alpha  occ. eigenvalues --   -0.51751  -0.51327  -0.48697  -0.46811  -0.46029
 Alpha  occ. eigenvalues --   -0.45911  -0.44651  -0.43187  -0.42460  -0.42417
 Alpha  occ. eigenvalues --   -0.42309  -0.40276  -0.40007  -0.38829  -0.36403
 Alpha  occ. eigenvalues --   -0.36249  -0.36142  -0.34659  -0.34622  -0.34263
 Alpha  occ. eigenvalues --   -0.33862  -0.33058  -0.32582  -0.25694  -0.25668
 Alpha  occ. eigenvalues --   -0.25089  -0.24508
 Alpha virt. eigenvalues --   -0.01344  -0.01319  -0.01247  -0.00905   0.02961
 Alpha virt. eigenvalues --    0.04673   0.05637   0.05727   0.06243   0.07501
 Alpha virt. eigenvalues --    0.07905   0.09157   0.09566   0.10095   0.10484
 Alpha virt. eigenvalues --    0.10530   0.11829   0.11860   0.11921   0.12803
 Alpha virt. eigenvalues --    0.12824   0.13953   0.14439   0.14753   0.15679
 Alpha virt. eigenvalues --    0.15785   0.16500   0.18012   0.19231   0.20417
 Alpha virt. eigenvalues --    0.20941   0.21142   0.21495   0.21500   0.22698
 Alpha virt. eigenvalues --    0.23321   0.23536   0.23845   0.23958   0.24236
 Alpha virt. eigenvalues --    0.24729   0.25470   0.26037   0.26173   0.27607
 Alpha virt. eigenvalues --    0.27951   0.28142   0.28569   0.30072   0.30450
 Alpha virt. eigenvalues --    0.31208   0.31274   0.31507   0.31918   0.32515
 Alpha virt. eigenvalues --    0.34050   0.34423   0.35896   0.36271   0.36290
 Alpha virt. eigenvalues --    0.36324   0.36965   0.37439   0.37441   0.37787
 Alpha virt. eigenvalues --    0.39050   0.39396   0.39934   0.40050   0.40403
 Alpha virt. eigenvalues --    0.41532   0.42210   0.42273   0.43004   0.43379
 Alpha virt. eigenvalues --    0.43732   0.43986   0.44689   0.44917   0.45065
 Alpha virt. eigenvalues --    0.46676   0.46821   0.47082   0.47873   0.48331
 Alpha virt. eigenvalues --    0.48539   0.48917   0.49288   0.50965   0.51013
 Alpha virt. eigenvalues --    0.51470   0.51967   0.52102   0.52282   0.53063
 Alpha virt. eigenvalues --    0.53109   0.54993   0.55257   0.58563   0.59429
 Alpha virt. eigenvalues --    0.59923   0.60240   0.62120   0.62554   0.65182
 Alpha virt. eigenvalues --    0.66413   0.66961   0.67032   0.68320   0.68992
 Alpha virt. eigenvalues --    0.69458   0.69687   0.71189   0.72687   0.72839
 Alpha virt. eigenvalues --    0.75161   0.75870   0.76578   0.77705   0.80542
 Alpha virt. eigenvalues --    0.82130   0.90171   0.90310   1.09341   1.15474
 Alpha virt. eigenvalues --    1.16691   1.19387   1.20618   1.21237   1.21416
 Alpha virt. eigenvalues --    1.22675   1.23014   1.24156   1.24927   1.24976
 Alpha virt. eigenvalues --    1.25255   1.25856   1.25893   1.26234   1.27808
 Alpha virt. eigenvalues --    1.29210   1.29469   1.29906   1.30098   1.30203
 Alpha virt. eigenvalues --    1.30406   1.30613   1.30837   1.31764   1.31809
 Alpha virt. eigenvalues --    1.32115   1.32519   1.33153   1.37312   1.39984
 Alpha virt. eigenvalues --    1.40725   1.41661   1.41948   1.42386   1.44045
 Alpha virt. eigenvalues --    1.44722   1.44743   1.44900   1.44956   1.44989
 Alpha virt. eigenvalues --    1.45288   1.45424   1.46633   1.47283   1.47579
 Alpha virt. eigenvalues --    1.48112   1.49754   1.49915   1.50214   1.51656
 Alpha virt. eigenvalues --    1.52126   1.52238   1.52658   1.52905   1.53178
 Alpha virt. eigenvalues --    1.54122   1.54290   1.54746   1.55037   1.55290
 Alpha virt. eigenvalues --    1.56081   1.58111   1.58745   1.61386   1.62138
 Alpha virt. eigenvalues --    1.64079   1.65044   1.67478   1.67716   1.68855
 Alpha virt. eigenvalues --    1.69150   1.70126   1.73031   1.75093   1.75984
 Alpha virt. eigenvalues --    1.76679   1.76928   1.77603   1.78476   1.79555
 Alpha virt. eigenvalues --    1.79690   1.80290   1.80308   1.82180   1.84174
 Alpha virt. eigenvalues --    1.84404   1.85156   1.86275   1.86298   1.86690
 Alpha virt. eigenvalues --    1.87187   1.87462   1.88021   1.88443   1.88988
 Alpha virt. eigenvalues --    1.89664   1.89778   1.89985   1.90932   1.91729
 Alpha virt. eigenvalues --    1.91779   1.92094   1.92787   1.93351   1.97328
 Alpha virt. eigenvalues --    1.97752   1.98806   2.01391   2.01497   2.01595
 Alpha virt. eigenvalues --    2.02446   2.04554   2.05162   2.08282   2.10820
 Alpha virt. eigenvalues --    2.14077   2.17341   2.17590   2.17998   2.19583
 Alpha virt. eigenvalues --    2.21336   2.23248   2.25447   2.27502   2.27977
 Alpha virt. eigenvalues --    2.30704   2.30838   2.31325   2.31870   2.32337
 Alpha virt. eigenvalues --    2.33028   2.33877   2.35286   2.35508   2.35694
 Alpha virt. eigenvalues --    2.37135   2.37215   2.40320   2.41767   2.42238
 Alpha virt. eigenvalues --    2.46871   2.47798   2.49597   2.49872   2.50010
 Alpha virt. eigenvalues --    2.51318   2.51857   2.53641   2.53890   2.55317
 Alpha virt. eigenvalues --    2.56672   2.56674   2.56970   2.59319   2.60544
 Alpha virt. eigenvalues --    2.60661   2.64624   2.64626   2.65019   2.65527
 Alpha virt. eigenvalues --    2.66827   2.67798   2.68067   2.68096   2.69652
 Alpha virt. eigenvalues --    2.70591   2.70845   2.74610   2.74648   2.74791
 Alpha virt. eigenvalues --    2.76983   2.78468   2.79806   2.80340   2.80820
 Alpha virt. eigenvalues --    2.82348   2.84867   2.88883   2.90783   2.97404
 Alpha virt. eigenvalues --    2.97501   3.02054   3.02369   3.04002   3.04594
 Alpha virt. eigenvalues --    3.07375   3.07490   3.10602   3.13076   3.13796
 Alpha virt. eigenvalues --    3.13834   3.17650   3.17915   3.18068   3.18354
 Alpha virt. eigenvalues --    3.19415   3.21872   3.29819   3.30227   3.33239
 Alpha virt. eigenvalues --    3.34669   3.38097   3.39745   3.40571   3.41413
 Alpha virt. eigenvalues --    3.44109   3.44514   3.47192   3.47287   3.53207
 Alpha virt. eigenvalues --    3.53238   3.53354   3.80673   3.81198  21.31645
 Alpha virt. eigenvalues --   21.32842  21.84178  21.84653  21.84898  21.86157
 Alpha virt. eigenvalues --   22.01395  22.07307  22.08532  22.08738  22.10779
 Alpha virt. eigenvalues --   22.12643  22.14323  22.15927  22.25975  22.26836
          Condensed to atoms (all electrons):
               1          2          3          4          5          6
     1  C    4.975137   0.475064  -0.032646  -0.065417  -0.032630   0.475039
     2  C    0.475064   4.986006   0.431593  -0.019731  -0.102016  -0.022551
     3  C   -0.032646   0.431593   5.103444   0.455128  -0.015981  -0.102005
     4  C   -0.065417  -0.019731   0.455128   5.128333   0.455031  -0.019719
     5  C   -0.032630  -0.102016  -0.015981   0.455031   5.103562   0.431581
     6  C    0.475039  -0.022551  -0.102005  -0.019719   0.431581   4.986011
     7  H    0.407399  -0.048316   0.013903  -0.002066   0.013903  -0.048320
     8  H   -0.049918   0.404481  -0.044085   0.012941   0.000051   0.011391
     9  H    0.011925  -0.048502   0.411864  -0.054920   0.013971  -0.002106
    10  H    0.011923  -0.002106   0.013966  -0.054920   0.411871  -0.048503
    11  H   -0.049918   0.011391   0.000052   0.012939  -0.044082   0.404480
    12  C    0.000635   0.017369  -0.068643   0.163505  -0.068646   0.017361
    13  H    0.000249  -0.001188   0.008060  -0.062373   0.001148   0.000089
    14  H    0.000249   0.000091   0.001161  -0.062433   0.008072  -0.001188
    15  C    0.000212  -0.000197  -0.011160  -0.047608  -0.011147  -0.000191
    16  H    0.000013  -0.000295   0.003225  -0.000065   0.002039  -0.000532
    17  H    0.000013  -0.000534   0.002039  -0.000033   0.003225  -0.000296
    18  C   -0.000053   0.000121  -0.000590   0.015136  -0.000590   0.000121
    19  H    0.000000   0.000005  -0.000252  -0.000965   0.000720  -0.000011
    20  H    0.000000  -0.000011   0.000720  -0.000965  -0.000253   0.000005
    21  C    0.000001   0.000002  -0.000110  -0.001479  -0.000110   0.000002
    22  H    0.000000  -0.000002   0.000033  -0.000072  -0.000058   0.000002
    23  H    0.000000   0.000002  -0.000057  -0.000072   0.000033  -0.000002
    24  C   -0.000000   0.000000  -0.000002   0.000109  -0.000002   0.000000
    25  C   -0.000000   0.000000   0.000000  -0.000002  -0.000001  -0.000000
    26  C   -0.000000  -0.000000  -0.000001  -0.000002   0.000000   0.000000
    27  C   -0.000000   0.000000   0.000000   0.000000  -0.000000   0.000000
    28  H   -0.000000  -0.000000  -0.000000  -0.000003  -0.000000  -0.000000
    29  C   -0.000000   0.000000  -0.000000   0.000000   0.000000   0.000000
    30  H   -0.000000  -0.000000  -0.000000  -0.000003  -0.000000  -0.000000
    31  C    0.000000  -0.000000  -0.000000  -0.000000  -0.000000  -0.000000
    32  H   -0.000000   0.000000  -0.000000  -0.000000  -0.000000  -0.000000
    33  H   -0.000000  -0.000000  -0.000000  -0.000000  -0.000000   0.000000
    34  H    0.000000   0.000000   0.000000  -0.000000   0.000000   0.000000
               7          8          9         10         11         12
     1  C    0.407399  -0.049918   0.011925   0.011923  -0.049918   0.000635
     2  C   -0.048316   0.404481  -0.048502  -0.002106   0.011391   0.017369
     3  C    0.013903  -0.044085   0.411864   0.013966   0.000052  -0.068643
     4  C   -0.002066   0.012941  -0.054920  -0.054920   0.012939   0.163505
     5  C    0.013903   0.000051   0.013971   0.411871  -0.044082  -0.068646
     6  C   -0.048320   0.011391  -0.002106  -0.048503   0.404480   0.017361
     7  H    0.566286  -0.005954  -0.000329  -0.000329  -0.005954  -0.000035
     8  H   -0.005954   0.571274  -0.005739   0.000059  -0.000361  -0.000853
     9  H   -0.000329  -0.005739   0.573278  -0.000312   0.000059  -0.004666
    10  H   -0.000329   0.000059  -0.000312   0.573264  -0.005740  -0.004653
    11  H   -0.005954  -0.000361   0.000059  -0.005740   0.571272  -0.000853
    12  C   -0.000035  -0.000853  -0.004666  -0.004653  -0.000853   5.317279
    13  H   -0.000000   0.000020   0.000370   0.002020  -0.000035   0.437284
    14  H   -0.000000  -0.000035   0.002024   0.000369   0.000020   0.437274
    15  C    0.000006  -0.000003  -0.003090  -0.003093  -0.000003   0.197801
    16  H   -0.000001  -0.000003   0.000113   0.001047   0.000014  -0.044994
    17  H   -0.000001   0.000014   0.001046   0.000113  -0.000003  -0.044978
    18  C   -0.000000  -0.000003  -0.000260  -0.000260  -0.000003  -0.033021
    19  H   -0.000000   0.000000   0.000008   0.000049  -0.000000  -0.002987
    20  H   -0.000000  -0.000000   0.000049   0.000008   0.000000  -0.002992
    21  C    0.000000   0.000000  -0.000011  -0.000011   0.000000   0.015326
    22  H   -0.000000  -0.000000   0.000000  -0.000001   0.000000  -0.000368
    23  H   -0.000000   0.000000  -0.000001   0.000000  -0.000000  -0.000367
    24  C   -0.000000  -0.000000  -0.000003  -0.000003  -0.000000  -0.001479
    25  C    0.000000  -0.000000  -0.000000  -0.000000  -0.000000  -0.000110
    26  C    0.000000  -0.000000  -0.000000  -0.000000  -0.000000  -0.000110
    27  C    0.000000   0.000000  -0.000000  -0.000000  -0.000000   0.000002
    28  H   -0.000000  -0.000000  -0.000000  -0.000000  -0.000000  -0.000011
    29  C    0.000000  -0.000000  -0.000000  -0.000000   0.000000   0.000002
    30  H   -0.000000  -0.000000  -0.000000  -0.000000  -0.000000  -0.000011
    31  C    0.000000  -0.000000  -0.000000  -0.000000  -0.000000   0.000001
    32  H   -0.000000   0.000000  -0.000000  -0.000000  -0.000000   0.000000
    33  H   -0.000000  -0.000000  -0.000000  -0.000000   0.000000   0.000000
    34  H    0.000000  -0.000000  -0.000000  -0.000000  -0.000000   0.000000
              13         14         15         16         17         18
     1  C    0.000249   0.000249   0.000212   0.000013   0.000013  -0.000053
     2  C   -0.001188   0.000091  -0.000197  -0.000295  -0.000534   0.000121
     3  C    0.008060   0.001161  -0.011160   0.003225   0.002039  -0.000590
     4  C   -0.062373  -0.062433  -0.047608  -0.000065  -0.000033   0.015136
     5  C    0.001148   0.008072  -0.011147   0.002039   0.003225  -0.000590
     6  C    0.000089  -0.001188  -0.000191  -0.000532  -0.000296   0.000121
     7  H   -0.000000  -0.000000   0.000006  -0.000001  -0.000001  -0.000000
     8  H    0.000020  -0.000035  -0.000003  -0.000003   0.000014  -0.000003
     9  H    0.000370   0.002024  -0.003090   0.000113   0.001046  -0.000260
    10  H    0.002020   0.000369  -0.003093   0.001047   0.000113  -0.000260
    11  H   -0.000035   0.000020  -0.000003   0.000014  -0.000003  -0.000003
    12  C    0.437284   0.437274   0.197801  -0.044994  -0.044978  -0.033021
    13  H    0.556659  -0.026621  -0.050814  -0.002052   0.006396  -0.004959
    14  H   -0.026621   0.556659  -0.050755   0.006393  -0.002055  -0.004955
    15  C   -0.050814  -0.050755   5.329927   0.419076   0.419032   0.160519
    16  H   -0.002052   0.006393   0.419076   0.565974  -0.021194  -0.047482
    17  H    0.006396  -0.002055   0.419032  -0.021194   0.565991  -0.047476
    18  C   -0.004959  -0.004955   0.160519  -0.047482  -0.047476   5.329917
    19  H    0.001199   0.001938  -0.047494  -0.000734   0.006238   0.419068
    20  H    0.001938   0.001199  -0.047469   0.006238  -0.000736   0.419048
    21  C   -0.000368  -0.000367  -0.033024  -0.002987  -0.002994   0.197797
    22  H    0.000291  -0.000110  -0.004956   0.001200   0.001938  -0.050784
    23  H   -0.000110   0.000291  -0.004962   0.001938   0.001199  -0.050790
    24  C   -0.000072  -0.000072   0.015140  -0.000964  -0.000966  -0.047617
    25  C   -0.000057   0.000033  -0.000591   0.000720  -0.000252  -0.011154
    26  C    0.000033  -0.000057  -0.000591  -0.000253   0.000720  -0.011148
    27  C    0.000002  -0.000002   0.000121  -0.000011   0.000005  -0.000195
    28  H   -0.000001   0.000000  -0.000260   0.000049   0.000008  -0.003091
    29  C   -0.000002   0.000002   0.000121   0.000005  -0.000011  -0.000194
    30  H    0.000000  -0.000001  -0.000260   0.000008   0.000049  -0.003093
    31  C    0.000000   0.000000  -0.000053   0.000000   0.000000   0.000212
    32  H    0.000000  -0.000000  -0.000003  -0.000000   0.000000  -0.000003
    33  H   -0.000000   0.000000  -0.000003   0.000000  -0.000000  -0.000003
    34  H   -0.000000  -0.000000  -0.000000  -0.000000  -0.000000   0.000006
              19         20         21         22         23         24
     1  C    0.000000   0.000000   0.000001   0.000000   0.000000  -0.000000
     2  C    0.000005  -0.000011   0.000002  -0.000002   0.000002   0.000000
     3  C   -0.000252   0.000720  -0.000110   0.000033  -0.000057  -0.000002
     4  C   -0.000965  -0.000965  -0.001479  -0.000072  -0.000072   0.000109
     5  C    0.000720  -0.000253  -0.000110  -0.000058   0.000033  -0.000002
     6  C   -0.000011   0.000005   0.000002   0.000002  -0.000002   0.000000
     7  H   -0.000000  -0.000000   0.000000  -0.000000  -0.000000  -0.000000
     8  H    0.000000  -0.000000   0.000000  -0.000000   0.000000  -0.000000
     9  H    0.000008   0.000049  -0.000011   0.000000  -0.000001  -0.000003
    10  H    0.000049   0.000008  -0.000011  -0.000001   0.000000  -0.000003
    11  H   -0.000000   0.000000   0.000000   0.000000  -0.000000  -0.000000
    12  C   -0.002987  -0.002992   0.015326  -0.000368  -0.000367  -0.001479
    13  H    0.001199   0.001938  -0.000368   0.000291  -0.000110  -0.000072
    14  H    0.001938   0.001199  -0.000367  -0.000110   0.000291  -0.000072
    15  C   -0.047494  -0.047469  -0.033024  -0.004956  -0.004962   0.015140
    16  H   -0.000734   0.006238  -0.002987   0.001200   0.001938  -0.000964
    17  H    0.006238  -0.000736  -0.002994   0.001938   0.001199  -0.000966
    18  C    0.419068   0.419048   0.197797  -0.050784  -0.050790  -0.047617
    19  H    0.565988  -0.021195  -0.044993  -0.002054   0.006396  -0.000047
    20  H   -0.021195   0.565988  -0.044980   0.006395  -0.002055  -0.000056
    21  C   -0.044993  -0.044980   5.317283   0.437283   0.437278   0.163502
    22  H   -0.002054   0.006395   0.437283   0.556660  -0.026624  -0.062412
    23  H    0.006396  -0.002055   0.437278  -0.026624   0.556671  -0.062393
    24  C   -0.000047  -0.000056   0.163502  -0.062412  -0.062393   5.128354
    25  C    0.002040   0.003224  -0.068654   0.001157   0.008064   0.455105
    26  C    0.003225   0.002039  -0.068641   0.008067   0.001152   0.455046
    27  C   -0.000533  -0.000295   0.017368   0.000090  -0.001188  -0.019723
    28  H    0.001046   0.000113  -0.004662   0.002023   0.000369  -0.054918
    29  C   -0.000295  -0.000533   0.017363  -0.001188   0.000090  -0.019723
    30  H    0.000113   0.001046  -0.004657   0.000369   0.002022  -0.054921
    31  C    0.000013   0.000013   0.000635   0.000249   0.000249  -0.065419
    32  H    0.000014  -0.000003  -0.000853  -0.000035   0.000020   0.012940
    33  H   -0.000003   0.000014  -0.000853   0.000020  -0.000035   0.012939
    34  H   -0.000001  -0.000001  -0.000035  -0.000000  -0.000000  -0.002066
              25         26         27         28         29         30
     1  C   -0.000000  -0.000000  -0.000000  -0.000000  -0.000000  -0.000000
     2  C    0.000000  -0.000000   0.000000  -0.000000   0.000000  -0.000000
     3  C    0.000000  -0.000001   0.000000  -0.000000  -0.000000  -0.000000
     4  C   -0.000002  -0.000002   0.000000  -0.000003   0.000000  -0.000003
     5  C   -0.000001   0.000000  -0.000000  -0.000000   0.000000  -0.000000
     6  C   -0.000000   0.000000   0.000000  -0.000000   0.000000  -0.000000
     7  H    0.000000   0.000000   0.000000  -0.000000   0.000000  -0.000000
     8  H   -0.000000  -0.000000   0.000000  -0.000000  -0.000000  -0.000000
     9  H   -0.000000  -0.000000  -0.000000  -0.000000  -0.000000  -0.000000
    10  H   -0.000000  -0.000000  -0.000000  -0.000000  -0.000000  -0.000000
    11  H   -0.000000  -0.000000  -0.000000  -0.000000   0.000000  -0.000000
    12  C   -0.000110  -0.000110   0.000002  -0.000011   0.000002  -0.000011
    13  H   -0.000057   0.000033   0.000002  -0.000001  -0.000002   0.000000
    14  H    0.000033  -0.000057  -0.000002   0.000000   0.000002  -0.000001
    15  C   -0.000591  -0.000591   0.000121  -0.000260   0.000121  -0.000260
    16  H    0.000720  -0.000253  -0.000011   0.000049   0.000005   0.000008
    17  H   -0.000252   0.000720   0.000005   0.000008  -0.000011   0.000049
    18  C   -0.011154  -0.011148  -0.000195  -0.003091  -0.000194  -0.003093
    19  H    0.002040   0.003225  -0.000533   0.001046  -0.000295   0.000113
    20  H    0.003224   0.002039  -0.000295   0.000113  -0.000533   0.001046
    21  C   -0.068654  -0.068641   0.017368  -0.004662   0.017363  -0.004657
    22  H    0.001157   0.008067   0.000090   0.002023  -0.001188   0.000369
    23  H    0.008064   0.001152  -0.001188   0.000369   0.000090   0.002022
    24  C    0.455105   0.455046  -0.019723  -0.054918  -0.019723  -0.054921
    25  C    5.103487  -0.015970   0.431575   0.411869  -0.102011   0.013968
    26  C   -0.015970   5.103527  -0.102019   0.013970   0.431585   0.411867
    27  C    0.431575  -0.102019   4.986015  -0.048507  -0.022546  -0.002106
    28  H    0.411869   0.013970  -0.048507   0.573273  -0.002106  -0.000312
    29  C   -0.102011   0.431585  -0.022546  -0.002106   4.986017  -0.048500
    30  H    0.013968   0.411867  -0.002106  -0.000312  -0.048500   0.573267
    31  C   -0.032641  -0.032629   0.475059   0.011924   0.475036   0.011923
    32  H   -0.044085   0.000051   0.404481  -0.005739   0.011391   0.000059
    33  H    0.000052  -0.044081   0.011391   0.000059   0.404480  -0.005739
    34  H    0.013903   0.013904  -0.048316  -0.000329  -0.048321  -0.000329
              31         32         33         34
     1  C    0.000000  -0.000000  -0.000000   0.000000
     2  C   -0.000000   0.000000  -0.000000   0.000000
     3  C   -0.000000  -0.000000  -0.000000   0.000000
     4  C   -0.000000  -0.000000  -0.000000  -0.000000
     5  C   -0.000000  -0.000000  -0.000000   0.000000
     6  C   -0.000000  -0.000000   0.000000   0.000000
     7  H    0.000000  -0.000000  -0.000000   0.000000
     8  H   -0.000000   0.000000  -0.000000  -0.000000
     9  H   -0.000000  -0.000000  -0.000000  -0.000000
    10  H   -0.000000  -0.000000  -0.000000  -0.000000
    11  H   -0.000000  -0.000000   0.000000  -0.000000
    12  C    0.000001   0.000000   0.000000   0.000000
    13  H    0.000000   0.000000  -0.000000  -0.000000
    14  H    0.000000  -0.000000   0.000000  -0.000000
    15  C   -0.000053  -0.000003  -0.000003  -0.000000
    16  H    0.000000  -0.000000   0.000000  -0.000000
    17  H    0.000000   0.000000  -0.000000  -0.000000
    18  C    0.000212  -0.000003  -0.000003   0.000006
    19  H    0.000013   0.000014  -0.000003  -0.000001
    20  H    0.000013  -0.000003   0.000014  -0.000001
    21  C    0.000635  -0.000853  -0.000853  -0.000035
    22  H    0.000249  -0.000035   0.000020  -0.000000
    23  H    0.000249   0.000020  -0.000035  -0.000000
    24  C   -0.065419   0.012940   0.012939  -0.002066
    25  C   -0.032641  -0.044085   0.000052   0.013903
    26  C   -0.032629   0.000051  -0.044081   0.013904
    27  C    0.475059   0.404481   0.011391  -0.048316
    28  H    0.011924  -0.005739   0.000059  -0.000329
    29  C    0.475036   0.011391   0.404480  -0.048321
    30  H    0.011923   0.000059  -0.005739  -0.000329
    31  C    4.975139  -0.049916  -0.049919   0.407399
    32  H   -0.049916   0.571273  -0.000361  -0.005954
    33  H   -0.049919  -0.000361   0.571272  -0.005954
    34  H    0.407399  -0.005954  -0.005954   0.566286
 Mulliken charges:
               1
     1  C   -0.127276
     2  C   -0.080678
     3  C   -0.169654
     4  C    0.149723
     5  C   -0.169690
     6  C   -0.080657
     7  H    0.109808
     8  H    0.106723
     9  H    0.105234
    10  H    0.105241
    11  H    0.106725
    12  C   -0.324065
    13  H    0.132896
    14  H    0.132877
    15  C   -0.224228
    16  H    0.113515
    17  H    0.113501
    18  C   -0.224217
    19  H    0.113505
    20  H    0.113507
    21  C   -0.324052
    22  H    0.132885
    23  H    0.132883
    24  C    0.149720
    25  C   -0.169667
    26  C   -0.169683
    27  C   -0.080670
    28  H    0.105236
    29  C   -0.080663
    30  H    0.105240
    31  C   -0.127276
    32  H    0.106723
    33  H    0.106725
    34  H    0.109808
 Sum of Mulliken charges =  -0.00000
 Mulliken charges with hydrogens summed into heavy atoms:
               1
     1  C   -0.017468
     2  C    0.026044
     3  C   -0.064420
     4  C    0.149723
     5  C   -0.064448
     6  C    0.026068
    12  C   -0.058292
    15  C    0.002788
    18  C    0.002795
    21  C   -0.058284
    24  C    0.149720
    25  C   -0.064431
    26  C   -0.064443
    27  C    0.026053
    29  C    0.026062
    31  C   -0.017468
 APT charges:
               1
     1  C   -0.071460
     2  C   -0.005312
     3  C   -0.085773
     4  C    0.086240
     5  C   -0.085771
     6  C   -0.005315
     7  H    0.029470
     8  H    0.024118
     9  H    0.030054
    10  H    0.030056
    11  H    0.024118
    12  C    0.080845
    13  H   -0.034678
    14  H   -0.034668
    15  C    0.084069
    16  H   -0.032995
    17  H   -0.032997
    18  C    0.084059
    19  H   -0.032994
    20  H   -0.032993
    21  C    0.080859
    22  H   -0.034675
    23  H   -0.034678
    24  C    0.086228
    25  C   -0.085773
    26  C   -0.085769
    27  C   -0.005314
    28  H    0.030056
    29  C   -0.005315
    30  H    0.030058
    31  C   -0.071458
    32  H    0.024118
    33  H    0.024118
    34  H    0.029470
 Sum of APT charges =   0.00000
 APT charges with hydrogens summed into heavy atoms:
               1
     1  C   -0.041990
     2  C    0.018806
     3  C   -0.055719
     4  C    0.086240
     5  C   -0.055715
     6  C    0.018803
    12  C    0.011499
    15  C    0.018078
    18  C    0.018072
    21  C    0.011506
    24  C    0.086228
    25  C   -0.055717
    26  C   -0.055712
    27  C    0.018804
    29  C    0.018803
    31  C   -0.041987
 Electronic spatial extent (au):  <R**2>=           7337.0851
 Charge=             -0.0000 electrons
 Dipole moment (field-independent basis, Debye):
    X=             -0.0000    Y=              0.0000    Z=              0.0000  Tot=              0.0000
 Quadrupole moment (field-independent basis, Debye-Ang):
   XX=            -96.3103   YY=            -89.4245   ZZ=           -103.2986
   XY=             -0.0004   XZ=             -4.2033   YZ=             -0.0012
 Traceless Quadrupole moment (field-independent basis, Debye-Ang):
   XX=              0.0342   YY=              6.9199   ZZ=             -6.9541
   XY=             -0.0004   XZ=             -4.2033   YZ=             -0.0012
 Octapole moment (field-independent basis, Debye-Ang**2):
  XXX=              0.0011  YYY=             -0.0004  ZZZ=             -0.0002  XYY=              0.0000
  XXY=              0.0071  XXZ=              0.0018  XZZ=             -0.0008  YZZ=             -0.0000
  YYZ=              0.0001  XYZ=              0.0104
 Hexadecapole moment (field-independent basis, Debye-Ang**3):
 XXXX=          -8971.2445 YYYY=           -608.2275 ZZZZ=           -298.6632 XXXY=             -0.0382
 XXXZ=           -307.2949 YYYX=              0.0012 YYYZ=             -0.0030 ZZZX=              3.5128
 ZZZY=             -0.0041 XXYY=          -1546.7542 XXZZ=          -1782.7502 YYZZ=           -164.2841
 XXYZ=             -0.0158 YYXZ=             -8.3292 ZZXY=              0.0006
 N-N= 9.317638354155D+02 E-N=-3.301868136048D+03  KE= 6.174966664957D+02
  Exact polarizability:     248.328      -0.002     178.761     -24.400      -0.003     117.518
 Approx polarizability:     315.334      -0.002     311.921     -44.545      -0.008     186.238
 Calling FoFJK, ICntrl=    100127 FMM=F ISym2X=0 I1Cent= 0 IOpClX= 0 NMat=1 NMatS=1 NMatT=0.
 Full mass-weighted force constant matrix:
 Low frequencies ---   -6.7992   -0.0005   -0.0002    0.0005    1.6999    3.4066
 Low frequencies ---   16.0242   22.8800   36.6537
 Diagonal vibrational polarizability:
        2.7862553       2.4270437      10.6217678
 Harmonic frequencies (cm**-1), IR intensities (KM/Mole), Raman scattering
 activities (A**4/AMU), depolarization ratios for plane and unpolarized
 incident light, reduced masses (AMU), force constants (mDyne/A),
 and normal coordinates:
                      1                      2                      3
                      A                      A                      A
 Frequencies --     16.0242                22.8800                36.6234
 Red. masses --      3.6994                 4.0286                 3.0497
 Frc consts  --      0.0006                 0.0012                 0.0024
 IR Inten    --      0.0054                 0.0143                 0.0000
  Atom  AN      X      Y      Z        X      Y      Z        X      Y      Z
     1   6     0.00   0.08  -0.00     0.00  -0.14   0.00    -0.00   0.05  -0.00
     2   6     0.01   0.05   0.16     0.10  -0.10   0.06    -0.09   0.02  -0.07
     3   6     0.01  -0.00   0.16     0.10  -0.01   0.06    -0.09  -0.06  -0.07
     4   6    -0.00  -0.03  -0.00    -0.00   0.04  -0.00     0.00  -0.09   0.00
     5   6    -0.01  -0.00  -0.16    -0.10  -0.01  -0.06     0.09  -0.06   0.07
     6   6    -0.01   0.05  -0.16    -0.10  -0.10  -0.06     0.09   0.02   0.07
     7   1     0.00   0.11   0.00     0.00  -0.22   0.00    -0.00   0.11  -0.00
     8   1     0.01   0.07   0.28     0.18  -0.13   0.10    -0.16   0.04  -0.12
     9   1     0.01  -0.02   0.28     0.18   0.03   0.10    -0.15  -0.08  -0.12
    10   1    -0.01  -0.02  -0.28    -0.18   0.03  -0.10     0.15  -0.08   0.12
    11   1    -0.01   0.07  -0.28    -0.18  -0.13  -0.10     0.16   0.04   0.12
    12   6    -0.00  -0.08   0.00    -0.00   0.14  -0.00     0.00  -0.16   0.00
    13   1     0.02  -0.11  -0.03    -0.05   0.17   0.03     0.00  -0.26  -0.13
    14   1    -0.02  -0.11   0.03     0.05   0.17  -0.03    -0.00  -0.26   0.14
    15   6    -0.00  -0.06  -0.00    -0.00   0.15  -0.00     0.00   0.02   0.00
    16   1    -0.00  -0.05  -0.01    -0.01   0.15  -0.00    -0.01   0.11  -0.13
    17   1     0.00  -0.05   0.01     0.01   0.15   0.00     0.01   0.11   0.13
    18   6    -0.00  -0.06  -0.00    -0.00   0.15  -0.00     0.00  -0.02   0.00
    19   1     0.00  -0.05   0.01     0.01   0.15   0.00    -0.01  -0.11  -0.13
    20   1    -0.00  -0.05  -0.01    -0.01   0.15  -0.00     0.01  -0.11   0.13
    21   6    -0.00  -0.08   0.00    -0.00   0.14  -0.00     0.00   0.16  -0.00
    22   1    -0.02  -0.11   0.03     0.05   0.16  -0.03     0.00   0.26  -0.14
    23   1     0.02  -0.11  -0.03    -0.05   0.16   0.03    -0.00   0.26   0.14
    24   6    -0.00  -0.03   0.00    -0.00   0.04  -0.00     0.00   0.09  -0.00
    25   6     0.01  -0.00   0.16     0.10  -0.01   0.06     0.09   0.06   0.07
    26   6    -0.01  -0.00  -0.16    -0.10  -0.01  -0.06    -0.09   0.06  -0.07
    27   6     0.01   0.05   0.16     0.10  -0.10   0.06     0.09  -0.02   0.07
    28   1     0.01  -0.02   0.28     0.18   0.03   0.10     0.15   0.08   0.12
    29   6    -0.01   0.05  -0.16    -0.10  -0.10  -0.06    -0.09  -0.02  -0.07
    30   1    -0.01  -0.02  -0.28    -0.18   0.03  -0.10    -0.15   0.08  -0.12
    31   6     0.00   0.08  -0.00    -0.00  -0.14   0.00    -0.00  -0.05  -0.00
    32   1     0.01   0.07   0.28     0.18  -0.13   0.10     0.16  -0.04   0.12
    33   1    -0.01   0.07  -0.28    -0.18  -0.13  -0.10    -0.16  -0.04  -0.12
    34   1     0.00   0.11  -0.00    -0.00  -0.22   0.00    -0.00  -0.11  -0.00
                      4                      5                      6
                      A                      A                      A
 Frequencies --     41.9912                82.3399               111.0995
 Red. masses --      4.5041                 5.1310                 2.4149
 Frc consts  --      0.0047                 0.0205                 0.0176
 IR Inten    --      0.0095                 0.0000                 0.0770
  Atom  AN      X      Y      Z        X      Y      Z        X      Y      Z
     1   6     0.06   0.00   0.20    -0.18  -0.00  -0.13     0.00   0.01   0.00
     2   6     0.04   0.00   0.13    -0.15   0.00  -0.05    -0.03  -0.00   0.00
     3   6    -0.01  -0.00  -0.01    -0.10   0.00   0.09    -0.03  -0.04   0.00
     4   6    -0.03  -0.00  -0.07    -0.08   0.00   0.14     0.00  -0.06   0.00
     5   6    -0.01  -0.00  -0.01    -0.10  -0.00   0.09     0.03  -0.04  -0.00
     6   6     0.04   0.00   0.13    -0.15  -0.00  -0.05     0.03  -0.00  -0.00
     7   1     0.10   0.00   0.31    -0.22  -0.00  -0.26     0.00   0.04   0.00
     8   1     0.05   0.00   0.18    -0.17   0.00  -0.11    -0.06   0.01   0.00
     9   1    -0.03  -0.00  -0.05    -0.09  -0.00   0.13    -0.06  -0.06   0.00
    10   1    -0.03  -0.00  -0.05    -0.09   0.00   0.13     0.06  -0.06  -0.00
    11   1     0.06   0.00   0.18    -0.17  -0.00  -0.11     0.06   0.01  -0.00
    12   6    -0.06  -0.00  -0.17    -0.07   0.00   0.13     0.00  -0.08   0.00
    13   1    -0.09   0.00  -0.17    -0.10  -0.00   0.12    -0.05  -0.21  -0.19
    14   1    -0.09  -0.00  -0.17    -0.10   0.00   0.12     0.05  -0.21   0.19
    15   6    -0.02  -0.00  -0.20     0.01   0.00   0.06     0.00   0.21  -0.00
    16   1    -0.01  -0.00  -0.19     0.07   0.00   0.08    -0.05   0.31  -0.15
    17   1    -0.01   0.00  -0.19     0.07  -0.00   0.08     0.05   0.31   0.15
    18   6    -0.02  -0.00  -0.20    -0.01   0.00  -0.06     0.00   0.21  -0.00
    19   1    -0.01   0.00  -0.19    -0.07   0.00  -0.08     0.05   0.31   0.15
    20   1    -0.01  -0.00  -0.19    -0.07  -0.00  -0.08    -0.05   0.31  -0.15
    21   6    -0.06   0.00  -0.17     0.07  -0.00  -0.13    -0.00  -0.08   0.00
    22   1    -0.09  -0.00  -0.17     0.10  -0.00  -0.12     0.05  -0.21   0.19
    23   1    -0.09   0.00  -0.17     0.10   0.00  -0.12    -0.05  -0.21  -0.19
    24   6    -0.03   0.00  -0.07     0.08  -0.00  -0.14    -0.00  -0.06   0.00
    25   6    -0.01   0.00  -0.01     0.10  -0.00  -0.09    -0.03  -0.04   0.00
    26   6    -0.01   0.00  -0.01     0.10   0.00  -0.09     0.03  -0.04  -0.00
    27   6     0.04   0.00   0.13     0.15  -0.00   0.05    -0.03  -0.00   0.00
    28   1    -0.03  -0.00  -0.05     0.09   0.00  -0.13    -0.06  -0.06   0.00
    29   6     0.04   0.00   0.13     0.15   0.00   0.05     0.03  -0.00  -0.00
    30   1    -0.03   0.00  -0.05     0.09  -0.00  -0.13     0.06  -0.06  -0.00
    31   6     0.06   0.00   0.20     0.18   0.00   0.13    -0.00   0.01  -0.00
    32   1     0.06   0.00   0.18     0.17  -0.00   0.11    -0.06   0.01   0.00
    33   1     0.05   0.00   0.18     0.17   0.00   0.11     0.06   0.01  -0.00
    34   1     0.10   0.00   0.31     0.22   0.00   0.26    -0.00   0.04  -0.00
                      7                      8                      9
                      A                      A                      A
 Frequencies --    117.7371               195.3793               206.0916
 Red. masses --      1.8582                 4.1740                 5.0488
 Frc consts  --      0.0152                 0.0939                 0.1263
 IR Inten    --      0.0000                 2.3706                 0.0000
  Atom  AN      X      Y      Z        X      Y      Z        X      Y      Z
     1   6     0.00  -0.03   0.00     0.08  -0.00   0.13    -0.07   0.00   0.17
     2   6     0.02  -0.01  -0.01     0.03  -0.00  -0.00    -0.11   0.01   0.03
     3   6     0.02   0.02  -0.01    -0.02  -0.00  -0.15    -0.15   0.01  -0.13
     4   6    -0.00   0.03  -0.00    -0.02  -0.00  -0.14    -0.12  -0.00  -0.13
     5   6    -0.02   0.02   0.01    -0.02   0.00  -0.15    -0.15  -0.01  -0.13
     6   6    -0.02  -0.01   0.01     0.03   0.00  -0.00    -0.11  -0.01   0.03
     7   1     0.00  -0.05   0.00     0.14  -0.00   0.29    -0.01   0.00   0.35
     8   1     0.04  -0.03  -0.02     0.05  -0.00   0.05    -0.08   0.00   0.07
     9   1     0.04   0.03  -0.02    -0.03   0.00  -0.19    -0.19  -0.00  -0.19
    10   1    -0.04   0.03   0.02    -0.03  -0.00  -0.19    -0.19   0.00  -0.19
    11   1    -0.04  -0.03   0.02     0.05   0.00   0.05    -0.08  -0.00   0.07
    12   6     0.00   0.03  -0.00     0.03  -0.00   0.06    -0.07  -0.00  -0.07
    13   1    -0.02  -0.04  -0.10     0.13   0.00   0.09    -0.06  -0.00  -0.07
    14   1     0.02  -0.04   0.10     0.13  -0.00   0.09    -0.06   0.00  -0.07
    15   6    -0.00   0.18  -0.00    -0.12   0.00   0.20    -0.03  -0.00  -0.04
    16   1     0.14   0.37  -0.23    -0.17   0.01   0.17    -0.06  -0.00  -0.05
    17   1    -0.14   0.37   0.23    -0.17  -0.01   0.17    -0.06   0.00  -0.05
    18   6    -0.00  -0.18   0.00    -0.12   0.00   0.20     0.03   0.00   0.04
    19   1     0.14  -0.37  -0.23    -0.17  -0.00   0.17     0.06  -0.00   0.05
    20   1    -0.14  -0.37   0.23    -0.17   0.01   0.17     0.06   0.00   0.05
    21   6    -0.00  -0.03   0.00     0.03   0.00   0.06     0.07   0.00   0.07
    22   1    -0.02   0.04  -0.10     0.13  -0.00   0.09     0.06  -0.00   0.07
    23   1     0.02   0.04   0.10     0.13   0.00   0.09     0.06   0.00   0.07
    24   6    -0.00  -0.03   0.00    -0.02  -0.00  -0.14     0.12   0.00   0.13
    25   6    -0.02  -0.02   0.01    -0.02  -0.00  -0.15     0.15  -0.01   0.13
    26   6     0.02  -0.02  -0.01    -0.02   0.00  -0.15     0.15   0.01   0.13
    27   6    -0.02   0.01   0.01     0.03  -0.00  -0.00     0.11  -0.01  -0.03
    28   1    -0.04  -0.03   0.02    -0.03   0.00  -0.19     0.19   0.00   0.19
[...]
 .00045723,0.00027081,-0.00045596,0.00018481,-0.00161714,0.00421336,-0.
 00134141,0.00049361,-0.00048591,0.00020829,0.00018750,-0.00039776,-0.0
 0072913,-0.05065874,0.01719957,0.05558901,-0.01227061,-0.05431538,-0.0
 2259897,-0.09308956,-0.25140962,-0.04674947,0.05581229,0.03730296,-0.0
 3006202,-0.00006377,-0.00093780,-0.00055215,0.15173984,0.55156192,-0.0
 0000308,-0.00000275,0.00000174,0.00000093,0.00000419,0.00000144,0.0000
 0120,-0.00000773,-0.00000091,0.00002051,-0.00000987,0.00002603,-0.0000
 0366,-0.00000894,-0.00000583,-0.00000412,0.00000075,-0.00000073,-0.000
 00110,-0.00000070,0.00000009,-0.00000046,-0.00000006,-0.00000144,-0.00
 000326,0.00000418,-0.00000052,0.00000084,0.00000052,0.00000322,-0.0000
 0193,-0.00000137,0.00000099,-0.00007739,-0.00004915,-0.00001124,-0.000
 00217,-0.00000011,0.00000544,-0.00001078,0.00001377,-0.00001648,0.0002
 6854,-0.00015028,-0.00006072,-0.00005366,0.00002305,0.00003051,-0.0000
 0275,-0.00002447,0.00001676,-0.00045932,-0.00089325,-0.00010744,-0.000
 06325,0.00013716,-0.00013565,0.00003097,-0.00010121,-0.00001413,0.0054
 3004,-0.00273978,0.00019581,0.00104878,0.00121865,0.00004498,-0.000111
 82,0.00025641,0.00034063,-0.00263549,0.02718810,0.02422397,-0.00802379
 ,-0.02321328,-0.01459904,0.04017569,-0.00755021,-0.09812700,0.03923375
 ,-0.00098967,-0.03223546,-0.00046574,-0.00037557,-0.00007820,-0.251160
 94,0.15108902,0.46506346,0.00000206,0.00000425,-0.00000126,-0.00000224
 ,-0.00000295,-0.00000176,0.00000553,0.00001077,-0.00000673,-0.00002645
 ,-0.00000738,-0.00001382,0.00000147,0.00001115,0.00000224,-0.00000152,
 -0.00000066,0.00000085,0.00000171,0.00000087,0.00000077,0.00000174,0.0
 0000110,0.00000237,0.00000444,-0.00000509,0.00000247,-0.00000041,-0.00
 000210,0.00000216,0.00000296,0.00000063,-0.00000016,0.00004813,0.00002
 000,0.00000053,-0.00000204,0.00000323,-0.00001081,-0.00000630,0.000004
 65,0.00000646,-0.00012191,0.00006231,-0.00000387,-0.00000289,-0.000012
 43,-0.00000262,-0.00000710,-0.00003532,-0.00001165,0.00019600,-0.00004
 139,-0.00003184,0.00000778,0.00007338,-0.00010356,0.00002475,0.0000541
 2,0.00004923,-0.00021471,0.00263696,-0.00054124,0.00001045,-0.00024179
 ,-0.00026408,-0.00025183,-0.00066158,-0.00076559,-0.00132389,0.0171926
 5,0.01638430,-0.00143953,-0.00256945,0.00511757,-0.06074947,0.03126314
 ,0.04577612,-0.00081893,-0.00060276,0.00014628,0.00001040,0.00087983,0
 .00099262,0.00683113,-0.01308307,-0.01359032,0.05783415,0.00000351,0.0
 0000505,0.00000126,0.00000100,-0.00000224,-0.00000109,0.00000425,0.000
 00786,-0.00000028,-0.00001569,-0.00001856,-0.00000288,0.00000502,0.000
 00771,-0.00000009,-0.00000176,-0.00000099,0.00000052,0.00000140,0.0000
 0218,-0.00000034,-0.00000006,0.00000338,0.00000139,0.00000008,-0.00000
 484,-0.00000191,-0.00000210,-0.00000100,0.00000316,0.00000166,0.000000
 75,-0.00000120,0.00000165,-0.00000107,-0.00000575,-0.00000047,0.000001
 71,-0.00000155,0.00000175,-0.00000179,0.00000200,0.00003513,-0.0000454
 4,-0.00001890,0.00000935,0.00000738,-0.00000634,-0.00001149,-0.0000048
 5,0.00000105,-0.00016548,0.00010867,0.00012711,0.00002128,-0.00001317,
 -0.00000670,0.00002546,-0.00005470,0.00004371,0.00062014,-0.00055073,0
 .00168396,0.00015379,0.00013887,0.00000464,0.00016468,0.00060533,0.000
 17506,-0.00133281,0.00488494,0.00220523,-0.00230465,0.00227348,-0.0005
 0085,0.03114589,-0.18916100,-0.13690160,-0.00040433,0.00000956,0.00055
 981,-0.00014990,0.00027130,0.00011950,0.00730126,-0.01489137,-0.018460
 61,-0.03131093,0.19892318,-0.00000509,-0.00000549,-0.00000019,-0.00000
 170,0.00000477,0.00000652,0.00000710,-0.00001098,-0.00000700,-0.000002
 06,0.00004234,-0.00000590,-0.00000500,-0.00001598,-0.00000576,0.000000
 45,-0.00000047,0.00000322,-0.00000287,-0.00000323,0.00000038,0.0000008
 5,-0.00000184,-0.00000191,-0.00000484,0.00000974,0.00000495,0.00000216
 ,0.00000316,-0.00000238,-0.00000414,-0.00000252,0.00000271,0.00007441,
 0.00004023,0.00000104,-0.00000039,-0.00000467,0.00000797,-0.00001894,0
 .00002133,-0.00000233,-0.00026190,0.00022408,-0.00007842,-0.00005977,-
 0.00007913,0.00001077,0.00003451,0.00001640,0.00001209,0.00076342,0.00
 026799,-0.00009544,-0.00008135,-0.00004909,0.00013311,-0.00021168,0.00
 032571,-0.00019025,-0.00264607,0.00065288,-0.00089431,-0.00020975,-0.0
 0013291,0.00038711,0.00054646,0.00039346,0.00015946,0.00271301,-0.0161
 2140,-0.01039599,0.00523907,0.00012011,0.00100734,0.04621090,-0.137001
 27,-0.17452331,0.00019688,0.00063786,0.00007722,0.00033167,-0.00086747
 ,-0.00046162,0.00067883,0.00074222,0.00213031,-0.05302994,0.15088143,0
 .18017229,-0.00000607,-0.00000849,0.00000161,0.00000191,0.00000449,0.0
 0000022,-0.00001264,-0.00001524,0.00000913,0.00004394,0.00001885,0.000
 03454,-0.00000321,-0.00001960,-0.00000172,0.00000123,0.00000113,-0.000
 00309,-0.00000213,-0.00000233,-0.00000053,-0.00000162,-0.00000400,-0.0
 0000288,-0.00000134,0.00000606,-0.00000054,0.00000206,0.00000351,-0.00
 000509,-0.00000438,-0.00000166,0.00000054,-0.00007453,-0.00005157,-0.0
 0003853,-0.00000079,0.00000516,0.00000873,0.00000574,-0.00000539,-0.00
 000557,0.00028450,-0.00008758,-0.00009972,0.00000404,0.00004896,-0.000
 00518,-0.00003094,-0.00005118,0.00001041,-0.00009570,-0.00003975,-0.00
 068825,-0.00009519,0.00026932,-0.00023325,0.00021617,-0.00022381,0.000
 07996,-0.00086138,-0.00023207,0.00068756,0.00028695,-0.00025631,-0.000
 15545,-0.00022141,-0.00011325,-0.00027101,-0.02272490,0.01606374,0.027
 61786,-0.03137237,-0.05069587,-0.00193320,0.03624284,0.00788184,-0.023
 66963,-0.21949876,-0.01654518,0.14111269,0.00207459,-0.00428992,0.0018
 6971,-0.10908912,-0.01343700,0.04125565,0.00098434,-0.00560694,0.00210
 331,0.48446695,-0.00000849,-0.00001401,-0.00000112,-0.00000166,0.00000
 535,-0.00000018,-0.00001819,-0.00002454,0.00001031,0.00007322,0.000027
 65,0.00003411,-0.00000776,-0.00003205,-0.00000509,0.00000220,0.0000053
 2,-0.00000275,-0.00000296,-0.00000465,0.,-0.00000173,-0.00000610,-0.00
 000416,-0.00000150,0.00000840,0.00000239,0.00000425,0.00000505,-0.0000
 0550,-0.00000664,-0.00000339,0.00000273,-0.00012124,-0.00009696,-0.000
 03954,-0.00000636,0.00000403,0.00000613,0.00000632,0.00000012,-0.00000
 772,0.00016579,0.00001832,0.00033248,-0.00002098,-0.00003053,0.0000055
 8,0.00001437,0.00002396,-0.00002244,-0.00094689,0.00012671,-0.00035386
 ,0.00003938,-0.00006796,0.00025798,-0.00001105,0.00015065,-0.00013642,
 0.00075561,-0.00134344,0.00041190,-0.00015586,0.00007084,-0.00008929,-
 0.00004326,0.00011057,0.00026467,0.01529873,-0.00808626,-0.01751801,-0
 .01937386,0.01592337,0.02634268,-0.02287494,-0.04534737,-0.01306431,-0
 .05878668,-0.11738848,0.01247566,-0.00503524,-0.00266778,-0.00211837,0
 .02827885,-0.21756784,-0.13776266,-0.00491767,-0.00148367,-0.00149269,
 0.18578845,0.60728491,0.00000160,-0.00000112,-0.00000124,-0.00000211,-
 0.00000101,0.00000102,0.00000192,0.00000021,0.00000046,0.00000947,-0.0
 0000581,-0.00000530,0.00000135,-0.00000155,-0.00000146,0.00000161,0.00
 000182,0.00000174,-0.00000023,0.00000045,-0.00000033,-0.00000070,0.000
 00079,-0.00000018,-0.00000122,0.00000066,-0.00000015,-0.00000126,0.000
 00126,-0.00000019,-0.00000040,-0.00000022,-0.00000013,-0.00000641,0.00
 001161,0.00000026,-0.00000213,-0.00000294,0.00000322,0.00000521,0.0000
 0122,0.00000061,-0.00021650,0.00014642,0.00024872,-0.00001957,-0.00007
 540,-0.00000076,0.00002680,0.00006174,-0.00002025,-0.00027011,0.000311
 71,0.00052440,0.00010141,-0.00024475,0.00033110,-0.00024677,0.00037908
 ,-0.00019863,0.00023180,-0.00031343,-0.00133754,-0.00048429,0.00005059
 ,0.00000788,-0.00002089,-0.00000079,0.00047656,0.02797048,-0.01695630,
 -0.04205387,0.01990253,0.05460089,0.02401914,-0.04576579,-0.04173749,0
 .01767438,0.11280866,-0.02663306,-0.17806443,0.00133922,-0.00273315,0.
 00427099,0.06980378,-0.09826519,-0.18823762,0.00265966,-0.00083664,0.0
 0417869,-0.21087686,0.15835716,0.42693048,-0.00000162,-0.00000173,-0.0
 0000069,-0.00000003,0.00000080,-0.00000001,-0.00000304,-0.00000249,0.,
 0.00000774,0.00000640,0.00000068,-0.00000244,-0.00000348,-0.00000242,-
 0.00000021,0.00000148,-0.00000046,0.00000010,-0.00000065,0.00000034,0.
 ,-0.00000082,0.00000005,0.00000020,0.00000058,0.00000113,0.00000174,-0
 .00000006,0.00000085,-0.00000032,-0.00000110,0.00000093,-0.00000867,-0
 .00000859,0.00000601,0.00000253,-0.00000186,0.00000034,-0.00000056,0.0
 0000109,0.00000106,-0.00000091,-0.00002352,0.00002877,-0.00000603,-0.0
 0000202,-0.00000092,0.00000329,0.00000674,0.00000614,-0.00006096,0.000
 02268,-0.00001821,0.00002247,0.00000034,0.00002275,-0.00000418,0.00000
 749,0.00000119,0.00045814,-0.00032455,-0.00059318,-0.00004143,0.000038
 88,0.00001363,-0.00011163,-0.00015495,-0.00006237,0.00101450,-0.005157
 30,0.00264872,0.00697375,-0.01300843,-0.01335071,-0.00093141,-0.000549
 52,0.00004005,-0.06222149,0.03335415,0.04776127,-0.00082749,0.00161736
 ,-0.00171319,-0.00089565,-0.00295931,0.00545904,-0.00039645,0.00039626
 ,-0.00052244,-0.00097628,0.01912295,0.01576375,0.05882770,-0.00000400,
 -0.00000610,0.00000079,0.00000002,0.00000392,0.00000182,-0.00000515,-0
 .00001094,0.00000196,0.00003005,0.00001516,0.00002086,-0.00000317,-0.0
 0001736,-0.00000597,0.00000039,0.00000214,-0.00000006,-0.00000172,-0.0
 0000165,-0.00000032,-0.00000082,-0.00000148,-0.00000186,-0.00000276,0.
 00000465,0.00000116,0.00000109,0.00000338,-0.00000184,-0.00000404,-0.0
 0000221,0.00000114,-0.00003746,-0.00003241,-0.00001713,-0.00000045,-0.
 00000196,0.00001147,0.00000105,0.00000008,-0.00000236,0.00008251,-0.00
 003575,0.00006487,-0.00000632,0.00000249,-0.00000359,0.00000446,0.0000
 1905,0.00000580,-0.00015001,-0.00004547,-0.00015978,0.00000523,-0.0000
 0470,0.00004137,0.00001620,-0.00000744,0.00000112,0.00050669,-0.000365
 77,-0.00095162,-0.00000956,0.00003684,0.00003470,-0.00017428,-0.000383
 69,-0.00001425,-0.00538889,-0.00131144,-0.00080112,0.00756072,-0.01463
 532,-0.01823877,-0.00054504,-0.00005011,0.00073861,0.03335681,-0.19427
 000,-0.13880335,0.00109890,0.00002949,0.00161032,-0.00238915,0.0025423
 5,-0.00086561,0.00040554,-0.00028041,0.00028465,-0.00146606,0.00593946
 ,0.00395578,-0.03417704,0.20282003,-0.00000288,-0.00000416,-0.00000018
 ,-0.00000006,0.00000169,0.00000077,-0.00000450,-0.00000715,-0.00000021
 ,0.00001650,0.00001362,0.00000430,-0.00000467,-0.00000747,0.00000011,0
 .00000117,0.00000137,-0.00000145,-0.00000128,-0.00000212,-0.00000006,0
 .00000005,-0.00000186,-0.00000140,-0.00000083,0.00000305,0.00000156,0.
 00000237,0.00000139,-0.00000191,-0.00000199,-0.00000102,0.00000159,-0.
 00001136,-0.00001194,-0.00000174,0.00000030,0.00000120,-0.00000114,-0.
 00000073,0.00000193,-0.00000013,0.00000458,-0.00000637,0.00001682,-0.0
 0000665,-0.00000156,0.00000162,-0.00000009,-0.00000411,-0.00000066,-0.
 00004189,-0.00000049,-0.00001166,0.00000384,0.00001733,-0.00000065,-0.
 00000212,0.00000809,-0.00000272,0.00026221,0.00014219,0.00000742,-0.00
 004164,-0.00001465,0.00000728,-0.00000467,0.00001546,-0.00003294,0.002
 34951,-0.00166739,0.00427308,0.00043998,0.00086903,0.00211483,-0.00000
 875,0.00069318,0.00005026,0.04765419,-0.13877187,-0.17260866,-0.002016
 22,0.00116499,-0.00120649,0.00583439,-0.00026890,0.00153282,-0.0005386
 4,0.00030569,-0.00055534,0.00197280,-0.01509906,-0.00997530,-0.0542683
 6,0.15190193,0.17792936,-0.00000438,-0.00000664,-0.00000040,0.00000020
 ,0.00000307,-0.00000026,-0.00001052,-0.00001153,0.00000288,0.00002856,
 0.00001965,0.00001175,-0.00000650,-0.00001144,0.,0.00000237,0.00000172
 ,-0.00000193,-0.00000172,-0.00000265,-0.00000001,-0.00000032,-0.000004
 04,-0.00000198,0.00000047,0.00000409,0.00000157,0.00000296,0.00000166,
 -0.00000414,-0.00000263,-0.00000098,0.00000132,-0.00002534,-0.00002709
 ,-0.00000849,0.00000012,0.00000173,-0.00000135,0.00000325,-0.00000185,
 0.00000062,0.00004481,-0.00003411,0.00003740,0.00000704,0.00000393,-0.
 00000156,-0.00000473,-0.00000464,-0.00000802,-0.00011424,-0.00001063,-
 0.00008169,0.00000257,0.00000698,-0.00000096,0.00003059,0.00000236,0.0
 0000144,-0.00032383,0.00042810,0.00065698,-0.00016716,-0.00016176,0.00
 001494,0.00000634,-0.00002132,-0.00005812,0.00219988,-0.00509539,0.001
 67115,0.00020183,-0.00013810,-0.00071599,-0.01027210,0.00027349,0.0117
 0781,0.00380043,-0.00049101,0.00280560,-0.00052205,0.00034723,-0.00045
 413,-0.20887839,-0.02927822,0.14377542,-0.00086404,0.00115784,-0.00202
 695,-0.00154067,-0.00159728,0.00229200,-0.00008638,-0.00021898,0.00019
 055,0.21742606,-0.00000166,-0.00000340,-0.00000022,0.00000086,0.000000
 68,-0.00000119,-0.00000905,-0.00000543,0.00000560,0.00002074,0.0000044
 6,0.00000877,-0.00000183,-0.00000602,0.00000040,0.00000175,0.00000132,
 -0.00000137,-0.00000045,-0.00000048,-0.00000028,-0.00000110,-0.0000022
 1,-0.00000102,0.00000076,0.00000149,-0.00000073,0.00000064,0.00000075,
 -0.00000252,-0.00000098,-0.00000025,-0.00000021,-0.00002639,-0.0000211
 6,-0.00000883,-0.00000093,0.00000065,0.00000127,0.00000699,-0.00000692
 ,0.00000056,0.00005334,-0.00002880,0.00006004,0.00001519,0.00001260,-0
 .00000718,-0.00000393,0.00000213,-0.00000348,-0.00015618,0.00000046,-0
 .00006584,0.00000411,-0.00000220,0.00001316,0.00003315,-0.00002671,0.0
 0000979,-0.00082174,0.00030433,0.00074061,-0.00021974,-0.00032904,0.00
 004655,0.00004229,0.00002325,-0.00003169,-0.00424436,-0.00253626,-0.00
 275906,-0.00007374,-0.00105167,-0.00039740,-0.02009678,0.00119904,0.01
 842950,-0.00110837,-0.00166530,-0.00495908,0.00033940,-0.00015852,0.00
 043923,-0.02924886,-0.05776100,0.01154655,0.00161761,0.00000684,0.0011
 3257,0.01872672,0.00649264,-0.01459449,0.00083011,0.00018805,-0.000824
 61,0.03340505,0.05536412,0.00000054,0.00000273,-0.00000013,-0.00000037
 ,-0.00000019,-0.00000039,0.00000385,0.00000504,-0.00000375,-0.00001548
 ,-0.00000214,-0.00000583,0.00000128,0.00000438,-0.00000165,-0.00000154
 ,-0.00000068,0.00000099,0.00000107,0.00000069,0.00000058,0.00000093,0.
 00000114,0.00000159,0.00000106,-0.00000235,0.00000125,-0.00000016,-0.0
 0000120,0.00000271,0.00000132,-0.00000021,0.,0.00002187,0.00000665,0.0
 0000368,0.00000168,-0.00000104,-0.00000139,-0.00000407,0.00000331,0.00
 000310,-0.00002765,-0.00001080,-0.00003585,0.00000053,-0.00000386,0.00
 000205,-0.00000064,-0.00000288,0.00000068,0.00008872,0.00000859,-0.000
 00430,-0.00000034,0.00000190,-0.00001472,0.00000391,0.00000762,0.00001
 323,-0.00000536,-0.00004585,0.00011930,-0.00000706,0.00007364,-0.00003
 215,-0.00000984,0.00000650,-0.00002690,0.00168466,-0.00234770,0.004314
 04,-0.00069903,-0.00040273,-0.00008139,-0.00217432,-0.00082361,0.00352
 774,0.00245206,-0.00552121,0.00104296,-0.00043864,0.00041707,-0.000551
 62,0.14386657,0.01148974,-0.16246000,-0.00169660,0.00162135,-0.0011480
 3,0.01620565,0.00465566,-0.00996572,0.00091901,0.00014627,-0.00046977,
 -0.15814619,-0.01049775,0.16678625,-0.00000213,-0.00000297,-0.00000023
 ,0.00000005,0.00000103,0.00000083,-0.00000367,-0.00000568,0.00000033,0
 .00000963,0.00001353,0.00000054,-0.00000339,-0.00000537,0.00000134,0.0
 0000184,0.00000040,-0.00000110,-0.00000118,-0.00000183,-0.00000014,0.0
 0000010,-0.00000172,-0.00000128,-0.00000065,0.00000253,0.00000109,0.00
 000171,0.00000140,-0.00000287,-0.00000172,-0.00000045,0.00000107,0.000
 00412,0.00000145,0.00000296,0.00000015,0.00000078,-0.00000248,-0.00000
 026,-0.00000007,0.00000087,-0.00001077,0.00001877,-0.00002534,0.000001
 23,0.00000124,0.00000100,-0.00000316,-0.00000743,-0.00000153,0.0000360
 7,0.00005088,0.00000130,-0.00000905,0.00002152,-0.00002495,0.00000683,
 -0.00000570,-0.00000042,-0.00024631,0.00036404,-0.00044330,-0.00001649
 ,0.00003043,0.00008155,0.00003849,-0.00011455,-0.00010150,-0.00061000,
 0.00074592,0.00019972,-0.00000831,-0.00115114,0.00621757,0.00335747,-0
 .00045263,0.00358475,-0.01012743,-0.02045611,-0.00318142,-0.00052752,-
 0.00108448,-0.00001139,0.00643077,0.00686076,-0.00002635,0.00026265,0.
 00025522,0.00019184,-0.13800184,-0.13560987,0.00499398,-0.00073499,0.0
 0151522,-0.00177512,-0.00093248,0.00091738,-0.00202740,0.14109022,-0.0
 0000233,-0.00000465,0.00000045,0.00000038,0.00000211,0.00000149,-0.000
 00386,-0.00000875,0.00000150,0.00002074,0.00001116,0.00001027,-0.00000
 358,-0.00000922,0.00000025,0.00000176,0.00000093,-0.00000070,-0.000001
 83,-0.00000160,-0.00000053,-0.00000064,-0.00000165,-0.00000212,-0.0000
 0187,0.00000412,0.00000005,0.00000087,0.00000218,-0.00000323,-0.000002
 65,-0.00000048,0.00000068,-0.00001915,-0.00001589,-0.00000711,-0.00000
 174,0.00000141,0.00000298,0.00000146,0.00000010,-0.00000312,0.00002144
 ,-0.00000878,0.00002531,-0.00000262,-0.00000046,0.00000038,0.00000224,
 0.00000366,-0.00000090,-0.00002906,-0.00002593,-0.00000832,-0.00000544
 ,-0.00000536,0.00001280,-0.00000783,0.00000697,-0.00001295,0.00016092,
 -0.00023981,0.00028815,0.00001033,-0.00000908,-0.00001150,0.00001300,0
 .00005862,0.00005282,0.00087317,0.00012844,-0.00004102,-0.00181610,0.0
 0295230,-0.00139573,0.00015696,-0.00005426,-0.00530739,0.00012280,0.00
 041989,-0.00078360,-0.00002652,-0.00004200,-0.00019015,-0.01357658,-0.
 01466834,0.00172492,-0.00074761,-0.00074236,-0.00001180,-0.13566505,-0
 .24203229,-0.01547805,0.00097012,-0.00014288,0.00155258,0.00146079,0.0
 0000255,0.00121194,0.14809750,0.25441936,-0.00000053,0.,-0.00000033,-0
 .00000027,0.00000046,0.00000070,0.00000077,-0.00000062,-0.00000108,-0.
 00000279,0.00000497,-0.00000394,-0.00000077,-0.00000031,-0.00000088,-0
 .00000033,-0.00000018,0.00000009,-0.00000015,-0.00000053,0.00000030,0.
 00000034,-0.00000032,-0.00000006,-0.00000027,0.00000079,0.00000080,0.0
 0000077,-0.00000034,0.00000038,-0.00000001,-0.00000028,0.00000058,0.00
 001247,0.00000802,0.00000464,0.00000144,-0.00000174,-0.00000060,-0.000
 00261,0.00000232,0.00000113,-0.00002660,0.00002336,-0.00001833,-0.0000
 0576,-0.00000756,0.00000113,0.00000255,0.00000277,0.00000140,0.0000381
 9,0.00005042,0.00000717,0.00000675,-0.00000913,0.00001602,-0.00001871,
 0.00003035,-0.00001219,-0.00034959,0.00043733,-0.00032990,-0.00013385,
 -0.00003173,0.00009545,0.00006440,-0.00000590,-0.00002724,0.00014102,-
 0.00013433,-0.00118481,0.00575728,-0.00194603,0.00083079,0.00407061,-0
 .00471643,0.00047015,0.01067331,0.01836456,0.00394614,0.00068411,0.000
 74773,0.00016294,-0.01394690,-0.01752823,0.00247423,-0.00052911,-0.000
 99016,0.00007303,0.00502014,-0.01543629,-0.04880655,-0.00214274,0.0010
 4304,-0.00106940,-0.00165923,0.00172234,-0.00101655,-0.00765391,0.0183
 7165,0.04438479\\0.00000395,-0.00000176,-0.00000617,-0.00000474,-0.000
 00454,0.00000291,0.00000123,0.00000500,0.00000209,0.00000640,0.0000032
 6,-0.00000370,-0.00000459,-0.00000383,0.00000108,0.00000082,0.00000562
 ,0.00000317,-0.00000073,0.00000014,0.00000201,0.00000103,0.00000099,-0
 .00000087,-0.00000079,-0.00000078,-0.00000073,0.00000010,0.00000089,-0
 .00000059,-0.00000046,-0.00000112,-0.00000047,0.00000044,-0.00001629,0
 .00001275,0.00000013,0.00000244,-0.00000243,0.00000037,0.00000296,-0.0
 0000262,-0.00001391,0.00000229,-0.00001469,0.00000141,-0.00000052,0.00
 000233,0.00000298,0.00000094,0.00000322,0.00000315,0.00002293,-0.00000
 800,-0.00000208,-0.00000048,-0.00000152,-0.00000106,-0.00000183,-0.000
 00187,0.00001063,-0.00000782,0.00001594,-0.00000141,-0.00000340,-0.000
 00053,-0.00000035,-0.00000269,-0.00000164,-0.00000916,0.00000199,0.000
 00435,-0.00000242,-0.00001174,-0.00000215,0.00000918,0.00000489,-0.000
 00319,0.00000896,0.00000744,-0.00000393,0.00000092,0.00000205,0.000000
 70,-0.00000188,-0.00000978,-0.00000511,-0.00000157,-0.00000151,0.00000
 115,-0.00000754,0.00000418,0.00000876,-0.00000149,-0.00000118,0.000000
 77,0.00000089,0.00000201,0.00000104,0.00000162,-0.00000075,-0.00000205
 \\\@
 The archive entry for this job was punched.


 The number of Unix installations has grown to 10,
  with more expected.
                  -- The Unix Programmer's Manual,
                     2nd Edition, June, 1972.
 Job cpu time:       0 days  3 hours 53 minutes 54.7 seconds.
 Elapsed time:       0 days  0 hours  7 minutes 23.8 seconds.
 File lengths (MBytes):  RWF=    552 Int=      0 D2E=      0 Chk=    536 Scr=      1
 Normal termination of Gaussian 16 at Fri Feb  2 23:20:45 2024.
