 Entering Gaussian System, Link 0=g16
 Input=DPB_gs_opt.gjf
 Output=DPB_gs_opt.log
 Initial command:
 /apps/gaussian/g16-c01-avx2/g16/l1.exe "/var/tmp/pbs.8837932.pbs/Gau-2193523.inp" -scrdir="/var/tmp/pbs.8837932.pbs/"
 Entering Link 1 = /apps/gaussian/g16-c01-avx2/g16/l1.exe PID=   2193524.
  
 Copyright (c) 1988-2019, Gaussian, Inc.  All Rights Reserved.
  
 This is part of the Gaussian(R) 16 program.  It is based on
 the Gaussian(R) 09 system (copyright 2009, Gaussian, Inc.),
 the Gaussian(R) 03 system (copyright 2003, Gaussian, Inc.),
 the Gaussian(R) 98 system (copyright 1998, Gaussian, Inc.),
 the Gaussian(R) 94 system (copyright 1995, Gaussian, Inc.),
 the Gaussian 92(TM) system (copyright 1992, Gaussian, Inc.),
 the Gaussian 90(TM) system (copyright 1990, Gaussian, Inc.),
 the Gaussian 88(TM) system (copyright 1988, Gaussian, Inc.),
 the Gaussian 86(TM) system (copyright 1986, Carnegie Mellon
 University), and the Gaussian 82(TM) system (copyright 1983,
 Carnegie Mellon University). Gaussian is a federally registered
 trademark of Gaussian, Inc.
  
 This software contains proprietary and confidential information,
 including trade secrets, belonging to Gaussian, Inc.
  
 This software is provided under written license and may be
 used, copied, transmitted, or stored only in accord with that
 written license.
  
 The following legend is applicable only to US Government
 contracts under FAR:
  
                    RESTRICTED RIGHTS LEGEND
  
 Use, reproduction and disclosure by the US Government is
 subject to restrictions as set forth in subparagraphs (a)
 and (c) of the Commercial Computer Software - Restricted
 Rights clause in FAR 52.227-19.
  
 Gaussian, Inc.
 340 Quinnipiac St., Bldg. 40, Wallingford CT 06492
  
  
 ---------------------------------------------------------------
 Warning -- This program may not be used in any manner that
 competes with the business of Gaussian, Inc. or will provide
 assistance to any competitor of Gaussian, Inc.  The licensee
 of this program is prohibited from giving any competitor of
 Gaussian, Inc. access to this program.  By using this program,
 the user acknowledges that Gaussian, Inc. is engaged in the
 business of creating and licensing software in the field of
 computational chemistry and represents and warrants to the
 licensee that it is not a competitor of Gaussian, Inc. and that
 it will not use this program in any manner prohibited above.
 ---------------------------------------------------------------
  

 Cite this work as:
 Gaussian 16, Revision C.01,
 M. J. Frisch, G. W. Trucks, H. B. Schlegel, G. E. Scuseria, 
 M. A. Robb, J. R. Cheeseman, G. Scalmani, V. Barone, 
 G. A. Petersson, H. Nakatsuji, X. Li, M. Caricato, A. V. Marenich, 
 J. Bloino, B. G. Janesko, R. Gomperts, B. Mennucci, H. P. Hratchian, 
 J. V. Ortiz, A. F. Izmaylov, J. L. Sonnenberg, D. Williams-Young, 
 F. Ding, F. Lipparini, F. Egidi, J. Goings, B. Peng, A. Petrone, 
 T. Henderson, D. Ranasinghe, V. G. Zakrzewski, J. Gao, N. Rega, 
 G. Zheng, W. Liang, M. Hada, M. Ehara, K. Toyota, R. Fukuda, 
 J. Hasegawa, M. Ishida, T. Nakajima, Y. Honda, O. Kitao, H. Nakai, 
 T. Vreven, K. Throssell, J. A. Montgomery, Jr., J. E. Peralta, 
 F. Ogliaro, M. J. Bearpark, J. J. Heyd, E. N. Brothers, K. N. Kudin, 
 V. N. Staroverov, T. A. Keith, R. Kobayashi, J. Normand, 
 K. Raghavachari, A. P. Rendell, J. C. Burant, S. S. Iyengar, 
 J. Tomasi, M. Cossi, J. M. Millam, M. Klene, C. Adamo, R. Cammi, 
 J. W. Ochterski, R. L. Martin, K. Morokuma, O. Farkas, 
 J. B. Foresman, and D. J. Fox, Gaussian, Inc., Wallingford CT, 2019.
 
 ******************************************
 Gaussian 16:  ES64L-G16RevC.01  3-Jul-2019
                 1-Feb-2024 
 ******************************************
 %chk=/rds/general/user/rk820/home/dibs-g16/fc_ht/exercise_8-7/DPB_gs.chk
 ----------------
 # B3LYP/TZVP Opt
 ----------------
 1/18=20,19=15,26=3,38=1/1,3;
 2/9=110,12=2,17=6,18=5,40=1/2;
 3/5=19,7=101,11=2,25=1,30=1,71=1,74=-5/1,2,3;
 4//1;
 5/5=2,38=5/2;
 6/7=2,8=2,9=2,10=2,28=1/1;
 7//1,2,3,16;
 1/18=20,19=15,26=3/3(2);
 2/9=110/2;
 99//99;
 2/9=110/2;
 3/5=19,7=101,11=2,25=1,30=1,71=1,74=-5/1,2,3;
 4/5=5,16=3,69=1/1;
 5/5=2,38=5/2;
 7//1,2,3,16;
 1/18=20,19=15,26=3/3(-5);
 2/9=110/2;
 6/7=2,8=2,9=2,10=2,19=2,28=1/1;
 99/9=1/99;
 ----------------------------------------------------------------------
 Ground state calculation for DPB molecule, later to be used for excite
 d state and FC-HT analysis.
 ----------------------------------------------------------------------
 Symbolic Z-matrix:
 Charge =  0 Multiplicity = 1
 C                    -1.86233   1.27553  -0.93454 
 C                    -0.90555   1.67825   0.0069 
 C                    -0.94967   2.9732    0.54084 
 C                    -1.95058   3.86542   0.13333 
 C                    -2.90735   3.4627   -0.80811 
 C                    -2.86323   2.16775  -1.34205 
 H                    -1.82864   0.28681  -1.34222 
 H                    -0.14134   0.99702   0.31803 
 H                    -0.21915   3.28069   1.25965 
 H                    -3.67156   4.14393  -1.11925 
 H                    -3.59375   1.86026  -2.06086 
 C                    -1.99906   5.28844   0.72008 
 H                    -2.93287   5.43598   1.2212 
 H                    -1.19666   5.41457   1.4166 
 C                    -1.87107   6.22495  -0.31457 
 H                    -2.73973   6.84918  -0.34009 
 H                    -1.77223   5.71292  -1.24889 
 C                    -0.62245   7.09257  -0.07008 
 H                    -0.14181   6.77941   0.83315 
 H                     0.05475   6.98243  -0.89115 
 C                    -1.00266   8.4365    0.04482 
 H                    -0.71555   8.80743   1.00652 
 H                    -2.06374   8.51776  -0.06657 
 C                    -0.30653   9.26256  -1.05275 
 C                     0.54958   10.31482  -0.70096 
 C                    -0.52917   8.96201  -2.40331 
 C                     1.18305   11.06652  -1.69975 
 H                     0.71956   10.54429   0.33022 
 C                     0.10431   9.71371  -3.40209 
 H                    -1.18282   8.15858  -2.6719 
 C                     0.96042   10.76597  -3.05031 
 H                     1.83671   11.86995  -1.43115 
 H                    -0.06568   9.48424  -4.43328 
 H                     1.44409   11.33992  -3.8129 
 

 GradGradGradGradGradGradGradGradGradGradGradGradGradGradGradGradGradGrad
 Berny optimization.
 Initialization pass.
                           ----------------------------
                           !    Initial Parameters    !
                           ! (Angstroms and Degrees)  !
 --------------------------                            --------------------------
 ! Name  Definition              Value          Derivative Info.                !
 --------------------------------------------------------------------------------
 ! R1    R(1,2)                  1.4014         estimate D2E/DX2                !
 ! R2    R(1,6)                  1.4014         estimate D2E/DX2                !
 ! R3    R(1,7)                  1.07           estimate D2E/DX2                !
 ! R4    R(2,3)                  1.4014         estimate D2E/DX2                !
 ! R5    R(2,8)                  1.07           estimate D2E/DX2                !
 ! R6    R(3,4)                  1.4014         estimate D2E/DX2                !
 ! R7    R(3,9)                  1.07           estimate D2E/DX2                !
 ! R8    R(4,5)                  1.4014         estimate D2E/DX2                !
 ! R9    R(4,12)                 1.54           estimate D2E/DX2                !
 ! R10   R(5,6)                  1.4014         estimate D2E/DX2                !
 ! R11   R(5,10)                 1.07           estimate D2E/DX2                !
 ! R12   R(6,11)                 1.07           estimate D2E/DX2                !
 ! R13   R(12,13)                1.07           estimate D2E/DX2                !
 ! R14   R(12,14)                1.07           estimate D2E/DX2                !
 ! R15   R(12,15)                1.4014         estimate D2E/DX2                !
 ! R16   R(15,16)                1.07           estimate D2E/DX2                !
 ! R17   R(15,17)                1.07           estimate D2E/DX2                !
 ! R18   R(15,18)                1.54           estimate D2E/DX2                !
 ! R19   R(18,19)                1.07           estimate D2E/DX2                !
 ! R20   R(18,20)                1.07           estimate D2E/DX2                !
 ! R21   R(18,21)                1.4014         estimate D2E/DX2                !
 ! R22   R(21,22)                1.07           estimate D2E/DX2                !
 ! R23   R(21,23)                1.07           estimate D2E/DX2                !
 ! R24   R(21,24)                1.54           estimate D2E/DX2                !
 ! R25   R(24,25)                1.4014         estimate D2E/DX2                !
 ! R26   R(24,26)                1.4014         estimate D2E/DX2                !
 ! R27   R(25,27)                1.4014         estimate D2E/DX2                !
 ! R28   R(25,28)                1.07           estimate D2E/DX2                !
 ! R29   R(26,29)                1.4014         estimate D2E/DX2                !
 ! R30   R(26,30)                1.07           estimate D2E/DX2                !
 ! R31   R(27,31)                1.4014         estimate D2E/DX2                !
 ! R32   R(27,32)                1.07           estimate D2E/DX2                !
 ! R33   R(29,31)                1.4014         estimate D2E/DX2                !
 ! R34   R(29,33)                1.07           estimate D2E/DX2                !
 ! R35   R(31,34)                1.07           estimate D2E/DX2                !
 ! A1    A(2,1,6)              120.0            estimate D2E/DX2                !
 ! A2    A(2,1,7)              120.0            estimate D2E/DX2                !
 ! A3    A(6,1,7)              120.0            estimate D2E/DX2                !
 ! A4    A(1,2,3)              120.0            estimate D2E/DX2                !
 ! A5    A(1,2,8)              120.0            estimate D2E/DX2                !
 ! A6    A(3,2,8)              120.0            estimate D2E/DX2                !
 ! A7    A(2,3,4)              120.0            estimate D2E/DX2                !
 ! A8    A(2,3,9)              120.0            estimate D2E/DX2                !
 ! A9    A(4,3,9)              120.0            estimate D2E/DX2                !
 ! A10   A(3,4,5)              120.0            estimate D2E/DX2                !
 ! A11   A(3,4,12)             120.0            estimate D2E/DX2                !
 ! A12   A(5,4,12)             120.0            estimate D2E/DX2                !
 ! A13   A(4,5,6)              120.0            estimate D2E/DX2                !
 ! A14   A(4,5,10)             120.0            estimate D2E/DX2                !
 ! A15   A(6,5,10)             120.0            estimate D2E/DX2                !
 ! A16   A(1,6,5)              120.0            estimate D2E/DX2                !
 ! A17   A(1,6,11)             120.0            estimate D2E/DX2                !
 ! A18   A(5,6,11)             120.0            estimate D2E/DX2                !
 ! A19   A(4,12,13)            109.4712         estimate D2E/DX2                !
 ! A20   A(4,12,14)            109.4712         estimate D2E/DX2                !
 ! A21   A(4,12,15)            109.4712         estimate D2E/DX2                !
 ! A22   A(13,12,14)           109.4712         estimate D2E/DX2                !
 ! A23   A(13,12,15)           109.4712         estimate D2E/DX2                !
 ! A24   A(14,12,15)           109.4712         estimate D2E/DX2                !
 ! A25   A(12,15,16)           109.4712         estimate D2E/DX2                !
 ! A26   A(12,15,17)           109.4712         estimate D2E/DX2                !
 ! A27   A(12,15,18)           109.4712         estimate D2E/DX2                !
 ! A28   A(16,15,17)           109.4712         estimate D2E/DX2                !
 ! A29   A(16,15,18)           109.4712         estimate D2E/DX2                !
 ! A30   A(17,15,18)           109.4712         estimate D2E/DX2                !
 ! A31   A(15,18,19)           109.4712         estimate D2E/DX2                !
 ! A32   A(15,18,20)           109.4712         estimate D2E/DX2                !
 ! A33   A(15,18,21)           109.4712         estimate D2E/DX2                !
 ! A34   A(19,18,20)           109.4712         estimate D2E/DX2                !
 ! A35   A(19,18,21)           109.4712         estimate D2E/DX2                !
 ! A36   A(20,18,21)           109.4712         estimate D2E/DX2                !
 ! A37   A(18,21,22)           109.4712         estimate D2E/DX2                !
 ! A38   A(18,21,23)           109.4712         estimate D2E/DX2                !
 ! A39   A(18,21,24)           109.4712         estimate D2E/DX2                !
 ! A40   A(22,21,23)           109.4712         estimate D2E/DX2                !
 ! A41   A(22,21,24)           109.4712         estimate D2E/DX2                !
 ! A42   A(23,21,24)           109.4712         estimate D2E/DX2                !
 ! A43   A(21,24,25)           120.0            estimate D2E/DX2                !
 ! A44   A(21,24,26)           120.0            estimate D2E/DX2                !
 ! A45   A(25,24,26)           120.0            estimate D2E/DX2                !
 ! A46   A(24,25,27)           120.0            estimate D2E/DX2                !
 ! A47   A(24,25,28)           120.0            estimate D2E/DX2                !
 ! A48   A(27,25,28)           120.0            estimate D2E/DX2                !
 ! A49   A(24,26,29)           120.0            estimate D2E/DX2                !
 ! A50   A(24,26,30)           120.0            estimate D2E/DX2                !
 ! A51   A(29,26,30)           120.0            estimate D2E/DX2                !
 ! A52   A(25,27,31)           120.0            estimate D2E/DX2                !
 ! A53   A(25,27,32)           120.0            estimate D2E/DX2                !
 ! A54   A(31,27,32)           120.0            estimate D2E/DX2                !
 ! A55   A(26,29,31)           120.0            estimate D2E/DX2                !
 ! A56   A(26,29,33)           120.0            estimate D2E/DX2                !
 ! A57   A(31,29,33)           120.0            estimate D2E/DX2                !
 ! A58   A(27,31,29)           120.0            estimate D2E/DX2                !
 ! A59   A(27,31,34)           120.0            estimate D2E/DX2                !
 ! A60   A(29,31,34)           120.0            estimate D2E/DX2                !
 ! D1    D(6,1,2,3)              0.0            estimate D2E/DX2                !
 ! D2    D(6,1,2,8)           -179.9999         estimate D2E/DX2                !
 ! D3    D(7,1,2,3)            180.0            estimate D2E/DX2                !
 ! D4    D(7,1,2,8)              0.0            estimate D2E/DX2                !
 ! D5    D(2,1,6,5)              0.0            estimate D2E/DX2                !
 ! D6    D(2,1,6,11)          -179.9999         estimate D2E/DX2                !
 ! D7    D(7,1,6,5)           -179.9999         estimate D2E/DX2                !
 ! D8    D(7,1,6,11)             0.0002         estimate D2E/DX2                !
 ! D9    D(1,2,3,4)              0.0            estimate D2E/DX2                !
 ! D10   D(1,2,3,9)            180.0            estimate D2E/DX2                !
 ! D11   D(8,2,3,4)            179.9999         estimate D2E/DX2                !
 ! D12   D(8,2,3,9)             -0.0001         estimate D2E/DX2                !
 ! D13   D(2,3,4,5)              0.0            estimate D2E/DX2                !
 ! D14   D(2,3,4,12)           180.0            estimate D2E/DX2                !
 ! D15   D(9,3,4,5)            180.0            estimate D2E/DX2                !
 ! D16   D(9,3,4,12)             0.0            estimate D2E/DX2                !
 ! D17   D(3,4,5,6)              0.0001         estimate D2E/DX2                !
 ! D18   D(3,4,5,10)           180.0            estimate D2E/DX2                !
 ! D19   D(12,4,5,6)          -179.9999         estimate D2E/DX2                !
 ! D20   D(12,4,5,10)            0.0            estimate D2E/DX2                !
 ! D21   D(3,4,12,13)         -120.0            estimate D2E/DX2                !
 ! D22   D(3,4,12,14)            0.0            estimate D2E/DX2                !
 ! D23   D(3,4,12,15)          120.0            estimate D2E/DX2                !
 ! D24   D(5,4,12,13)           60.0            estimate D2E/DX2                !
 ! D25   D(5,4,12,14)          180.0            estimate D2E/DX2                !
 ! D26   D(5,4,12,15)          -60.0            estimate D2E/DX2                !
 ! D27   D(4,5,6,1)              0.0            estimate D2E/DX2                !
 ! D28   D(4,5,6,11)           179.9999         estimate D2E/DX2                !
 ! D29   D(10,5,6,1)          -179.9999         estimate D2E/DX2                !
 ! D30   D(10,5,6,11)           -0.0001         estimate D2E/DX2                !
 ! D31   D(4,12,15,16)         120.0            estimate D2E/DX2                !
 ! D32   D(4,12,15,17)           0.0            estimate D2E/DX2                !
 ! D33   D(4,12,15,18)        -120.0            estimate D2E/DX2                !
 ! D34   D(13,12,15,16)          0.0            estimate D2E/DX2                !
 ! D35   D(13,12,15,17)       -120.0            estimate D2E/DX2                !
 ! D36   D(13,12,15,18)        120.0            estimate D2E/DX2                !
 ! D37   D(14,12,15,16)       -120.0            estimate D2E/DX2                !
 ! D38   D(14,12,15,17)        120.0            estimate D2E/DX2                !
 ! D39   D(14,12,15,18)          0.0            estimate D2E/DX2                !
 ! D40   D(12,15,18,19)          0.0            estimate D2E/DX2                !
 ! D41   D(12,15,18,20)        120.0            estimate D2E/DX2                !
 ! D42   D(12,15,18,21)       -120.0            estimate D2E/DX2                !
 ! D43   D(16,15,18,19)        120.0            estimate D2E/DX2                !
 ! D44   D(16,15,18,20)       -120.0            estimate D2E/DX2                !
 ! D45   D(16,15,18,21)          0.0            estimate D2E/DX2                !
 ! D46   D(17,15,18,19)       -120.0            estimate D2E/DX2                !
 ! D47   D(17,15,18,20)          0.0            estimate D2E/DX2                !
 ! D48   D(17,15,18,21)        120.0            estimate D2E/DX2                !
 ! D49   D(15,18,21,22)        120.0            estimate D2E/DX2                !
 ! D50   D(15,18,21,23)          0.0            estimate D2E/DX2                !
 ! D51   D(15,18,21,24)       -120.0            estimate D2E/DX2                !
 ! D52   D(19,18,21,22)          0.0            estimate D2E/DX2                !
 ! D53   D(19,18,21,23)       -120.0            estimate D2E/DX2                !
 ! D54   D(19,18,21,24)        120.0            estimate D2E/DX2                !
 ! D55   D(20,18,21,22)       -120.0            estimate D2E/DX2                !
 ! D56   D(20,18,21,23)        120.0            estimate D2E/DX2                !
 ! D57   D(20,18,21,24)          0.0            estimate D2E/DX2                !
 ! D58   D(18,21,24,25)       -120.0            estimate D2E/DX2                !
 ! D59   D(18,21,24,26)         60.0            estimate D2E/DX2                !
 ! D60   D(22,21,24,25)          0.0            estimate D2E/DX2                !
 ! D61   D(22,21,24,26)        180.0            estimate D2E/DX2                !
 ! D62   D(23,21,24,25)        120.0            estimate D2E/DX2                !
 ! D63   D(23,21,24,26)        -60.0            estimate D2E/DX2                !
 ! D64   D(21,24,25,27)        179.9999         estimate D2E/DX2                !
 ! D65   D(21,24,25,28)          0.0            estimate D2E/DX2                !
 ! D66   D(26,24,25,27)         -0.0001         estimate D2E/DX2                !
 ! D67   D(26,24,25,28)       -180.0            estimate D2E/DX2                !
 ! D68   D(21,24,26,29)        180.0            estimate D2E/DX2                !
 ! D69   D(21,24,26,30)         -0.0001         estimate D2E/DX2                !
 ! D70   D(25,24,26,29)          0.0            estimate D2E/DX2                !
 ! D71   D(25,24,26,30)        179.9999         estimate D2E/DX2                !
 ! D72   D(24,25,27,31)          0.0002         estimate D2E/DX2                !
 ! D73   D(24,25,27,32)       -180.0            estimate D2E/DX2                !
 ! D74   D(28,25,27,31)       -179.9999         estimate D2E/DX2                !
 ! D75   D(28,25,27,32)          0.0            estimate D2E/DX2                !
 ! D76   D(24,26,29,31)          0.0            estimate D2E/DX2                !
 ! D77   D(24,26,29,33)       -179.9999         estimate D2E/DX2                !
 ! D78   D(30,26,29,31)       -179.9999         estimate D2E/DX2                !
 ! D79   D(30,26,29,33)          0.0001         estimate D2E/DX2                !
 ! D80   D(25,27,31,29)         -0.0002         estimate D2E/DX2                !
 ! D81   D(25,27,31,34)       -179.9999         estimate D2E/DX2                !
 ! D82   D(32,27,31,29)        180.0            estimate D2E/DX2                !
 ! D83   D(32,27,31,34)          0.0002         estimate D2E/DX2                !
 ! D84   D(26,29,31,27)          0.0001         estimate D2E/DX2                !
 ! D85   D(26,29,31,34)        179.9998         estimate D2E/DX2                !
 ! D86   D(33,29,31,27)       -180.0            estimate D2E/DX2                !
 ! D87   D(33,29,31,34)         -0.0002         estimate D2E/DX2                !
 --------------------------------------------------------------------------------
 Trust Radius=3.00D-01 FncErr=1.00D-07 GrdErr=1.00D-06 EigMax=2.50D+02 EigMin=1.00D-04
 Number of steps in this run=    192 maximum allowed number of steps=    204.
 GradGradGradGradGradGradGradGradGradGradGradGradGradGradGradGradGradGrad

                          Input orientation:                          
 ---------------------------------------------------------------------
 Center     Atomic      Atomic             Coordinates (Angstroms)
 Number     Number       Type             X           Y           Z
 ---------------------------------------------------------------------
      1          6           0       -1.862331    1.275529   -0.934544
      2          6           0       -0.905552    1.678253    0.006897
      3          6           0       -0.949675    2.973199    0.540835
      4          6           0       -1.950576    3.865421    0.133333
      5          6           0       -2.907354    3.462698   -0.808109
      6          6           0       -2.863231    2.167752   -1.342047
      7          1           0       -1.828642    0.286809   -1.342218
      8          1           0       -0.141341    0.997022    0.318033
      9          1           0       -0.219153    3.280687    1.259646
     10          1           0       -3.671564    4.143929   -1.119246
     11          1           0       -3.593754    1.860263   -2.060856
     12          6           0       -1.999062    5.288438    0.720078
     13          1           0       -2.932874    5.435981    1.221204
     14          1           0       -1.196663    5.414571    1.416603
     15          6           0       -1.871072    6.224946   -0.314569
     16          1           0       -2.739734    6.849184   -0.340093
     17          1           0       -1.772234    5.712922   -1.248893
     18          6           0       -0.622451    7.092569   -0.070077
     19          1           0       -0.141809    6.779411    0.833148
     20          1           0        0.054753    6.982431   -0.891153
     21          6           0       -1.002658    8.436505    0.044817
     22          1           0       -0.715548    8.807430    1.006525
     23          1           0       -2.063738    8.517759   -0.066574
     24          6           0       -0.306532    9.262557   -1.052747
     25          6           0        0.549576   10.314817   -0.700965
     26          6           0       -0.529165    8.962005   -2.403311
     27          6           0        1.183052   11.066524   -1.699747
     28          1           0        0.719562   10.544294    0.330222
     29          6           0        0.104309    9.713714   -3.402094
     30          1           0       -1.182821    8.158581   -2.671905
     31          6           0        0.960417   10.765973   -3.050312
     32          1           0        1.836710   11.869947   -1.431154
     33          1           0       -0.065677    9.484236   -4.433280
     34          1           0        1.444091   11.339917   -3.812905
 ---------------------------------------------------------------------
                    Distance matrix (angstroms):
                    1          2          3          4          5
     1  C    0.000000
     2  C    1.401400   0.000000
     3  C    2.427296   1.401400   0.000000
     4  C    2.802800   2.427296   1.401400   0.000000
     5  C    2.427296   2.802800   2.427296   1.401400   0.000000
     6  C    1.401400   2.427296   2.802800   2.427296   1.401400
     7  H    1.070000   2.146700   3.396345   3.872800   3.396345
     8  H    2.146700   1.070000   2.146700   3.396345   3.872800
     9  H    3.396345   2.146700   1.070000   2.146700   3.396345
    10  H    3.396345   3.872800   3.396345   2.146700   1.070000
    11  H    2.146700   3.396345   3.872800   3.396345   2.146700
    12  C    4.342800   3.838989   2.548270   1.540000   2.548270
    13  H    4.806524   4.439043   3.234390   2.148263   2.830655
    14  H    4.806524   4.004010   2.605432   2.148263   3.418423
    15  C    4.988103   4.659183   3.486337   2.402976   2.991233
    16  H    5.673521   5.497560   4.359313   3.122458   3.422780
    17  H    4.449426   4.313549   3.374287   2.314220   2.558573
    18  C    6.010204   5.422259   4.177260   3.495679   4.352176
    19  H    6.031388   5.223773   3.901967   3.500388   4.619799
    20  H    6.020450   5.464704   4.374175   3.845343   4.601032
    21  C    7.278582   6.759056   5.486033   4.669174   5.393895
    22  H    7.862085   7.201425   5.857469   5.168289   6.055004
    23  H    7.296837   6.937264   5.687902   4.658005   5.178340
    24  C    8.138003   7.681363   6.519905   5.765305   6.361013
    25  C    9.358449   8.786848   7.595339   6.967174   7.675505
    26  C    7.938295   7.681395   6.686601   5.867720   6.200229
    27  C   10.282192   9.768036   8.664332   8.064470   8.680127
    28  H    9.704422   9.019547   7.755785   7.195537   8.037370
    29  C    9.008853   8.786903   7.879855   7.136128   7.407703
    30  H    7.131378   7.017657   6.104445   5.185559   5.338451
    31  C   10.124866   9.768062   8.790457   8.138003   8.562999
    32  H   11.232596  10.651696   9.529156   8.992418   9.673477
    33  H    9.102307   9.019642   8.241170   7.481837   7.581287
    34  H   10.977673  10.651736   9.730732   9.108493   9.487595
                    6          7          8          9         10
     6  C    0.000000
     7  H    2.146700   0.000000
     8  H    3.396345   2.471400   0.000000
     9  H    3.872800   4.280590   2.471400   0.000000
    10  H    2.146700   4.280590   4.942800   4.280590   0.000000
    11  H    1.070000   2.471400   4.280590   4.942800   2.471400
    12  C    3.838989   5.412800   4.693509   2.736837   2.736837
    13  H    4.154086   5.856999   5.320971   3.465696   2.773584
    14  H    4.574870   5.856999   4.672827   2.352366   3.764332
    15  C    4.301269   6.026552   5.542864   3.725003   2.867038
    16  H    4.789047   6.700680   6.436815   4.652598   2.965433
    17  H    3.710416   5.427208   5.230180   3.823689   2.466982
    18  C    5.558132   7.027916   6.126809   4.057247   4.369476
    19  H    5.779707   7.052056   5.805288   3.525472   4.818379
    20  H    5.647927   6.970078   6.109477   4.289973   4.689835
    21  C    6.684489   8.308047   7.494159   5.354638   5.186936
    22  H    7.362992   8.908229   7.861693   5.554761   5.916517
    23  H    6.525995   8.332531   7.772067   5.708614   4.777406
    24  C    7.546964   9.108494   8.380060   6.413857   6.126028
    25  C    8.856236  10.326086   9.398778   7.342610   7.488180
    26  C    7.261958   8.835926   8.425977   6.766886   5.893840
    27  C    9.782050  11.198230  10.354725   8.446505   8.475057
    28  H    9.262794  10.700766   9.586017   7.382751   7.896051
    29  C    8.366100   9.841032   9.480528   7.951118   7.105710
    30  H    6.362573   8.009365   7.830220   6.338738   4.972124
    31  C    9.563884  10.977673  10.391922   8.717605   8.308774
    32  H   10.781001  12.149559  11.188961   9.232679   9.493667
    33  H    8.420985   9.861814   9.726948   8.421222   7.245973
    34  H   10.430091  11.789244  11.249610   9.666869   9.230816
                   11         12         13         14         15
    11  H    0.000000
    12  C    4.693509   0.000000
    13  H    4.898412   1.070000   0.000000
    14  H    5.520134   1.070000   1.747303   0.000000
    15  C    5.006757   1.401400   2.026940   2.026940   0.000000
    16  H    5.346000   2.026940   2.114733   2.743203   1.070000
    17  H    4.338226   2.026940   2.743203   2.743203   1.070000
    18  C    6.337892   2.402976   3.122458   2.314220   1.540000
    19  H    6.670023   2.384360   3.121768   1.820968   2.148263
    20  H    6.396594   3.111886   3.972339   3.057771   2.148263
    21  C    7.375269   3.370329   3.756696   3.324382   2.402976
    22  H    8.121332   3.756696   4.040952   3.451250   3.122458
    23  H    7.116204   3.324382   3.451250   3.547028   2.314220
    24  C    8.161867   4.669174   5.168289   4.658005   3.495679
    25  C    9.512937   5.812005   6.294857   5.616569   4.768216
    26  C    7.742333   5.040958   5.598908   5.255624   3.695275
    27  C   10.378030   7.026214   7.561469   6.878899   5.889590
    28  H    9.986709   5.930171   6.342634   5.582670   5.077786
    29  C    8.783580   6.403088   6.992736   6.587488   5.060281
    30  H    6.771616   4.517689   5.062759   4.923990   3.125647
    31  C   10.051427   7.278582   7.862085   7.296837   6.010204
    32  H   11.405272   7.915630   8.436815   7.680035   6.845469
    33  H    8.729301   6.920968   7.522126   7.215430   5.553936
    34  H   10.877197   8.308047   8.908229   8.332530   7.027915
                   16         17         18         19         20
    16  H    0.000000
    17  H    1.747303   0.000000
    18  C    2.148263   2.148263   0.000000
    19  H    2.851417   2.851417   1.070000   0.000000
    20  H    2.851417   2.253333   1.070000   1.747303   0.000000
    21  C    2.384360   3.111886   1.401400   2.026940   2.026940
    22  H    3.121768   3.972339   2.026940   2.114733   2.743203
    23  H    1.820968   3.057771   2.026940   2.743203   2.743203
    24  C    3.500388   3.845343   2.402976   3.122458   2.314220
    25  C    4.791701   5.183480   3.486337   3.915432   3.374287
    26  C    3.688834   3.665303   2.991233   3.922809   2.558573
    27  C    5.918011   6.131724   4.659182   5.152684   4.313548
    28  H    5.105868   5.660813   3.725003   3.894771   3.823689
    29  C    5.066553   4.915691   4.301269   5.158292   3.710416
    30  H    3.094485   2.890262   2.867037   3.907840   2.466981
    31  C    6.031388   6.020450   4.988103   5.673521   4.449425
    32  H    6.880575   7.139093   5.542864   5.912289   5.230180
    33  H    5.554121   5.222592   5.006756   5.920907   4.338225
    34  H    7.052056   6.970077   6.026551   6.700679   5.427208
                   21         22         23         24         25
    21  C    0.000000
    22  H    1.070000   0.000000
    23  H    1.070000   1.747303   0.000000
    24  C    1.540000   2.148263   2.148263   0.000000
    25  C    2.548270   2.605432   3.234390   1.401400   0.000000
    26  C    2.548270   3.418423   2.830655   1.401400   2.427296
    27  C    3.838989   4.004010   4.439043   2.427296   1.401400
    28  H    2.736837   2.352366   3.465696   2.146700   1.070000
    29  C    3.838989   4.574870   4.154086   2.427296   2.802800
    30  H    2.736837   3.764332   2.773584   2.146700   3.396345
    31  C    4.342800   4.806524   4.806524   2.802800   2.427296
    32  H    4.693509   4.672827   5.320971   3.396345   2.146700
    33  H    4.693509   5.520134   4.898413   3.396345   3.872800
    34  H    5.412800   5.856999   5.856999   3.872800   3.396345
                   26         27         28         29         30
    26  C    0.000000
    27  C    2.802800   0.000000
    28  H    3.396345   2.146700   0.000000
    29  C    1.401400   2.427296   3.872800   0.000000
    30  H    1.070000   3.872800   4.280590   2.146700   0.000000
    31  C    2.427296   1.401400   3.396345   1.401400   3.396345
    32  H    3.872800   1.070000   2.471400   3.396345   4.942800
    33  H    2.146700   3.396345   4.942800   1.070000   2.471400
    34  H    3.396345   2.146700   4.280590   2.146700   4.280590
                   31         32         33         34
    31  C    0.000000
    32  H    2.146700   0.000000
    33  H    2.146700   4.280590   0.000000
    34  H    1.070000   2.471400   2.471400   0.000000
 Stoichiometry    C16H18
 Framework group  C1[X(C16H18)]
 Deg. of freedom    96
 Full point group                 C1      NOp   1
 Largest Abelian subgroup         C1      NOp   1
 Largest concise Abelian subgroup C1      NOp   1
                         Standard orientation:                         
 ---------------------------------------------------------------------
 Center     Atomic      Atomic             Coordinates (Angstroms)
 Number     Number       Type             X           Y           Z
 ---------------------------------------------------------------------
      1          6           0        5.077403    1.078911    0.593663
      2          6           0        4.604485    0.057004    1.427916
      3          6           0        3.504049   -0.716190    1.034046
      4          6           0        2.876531   -0.467477   -0.194077
      5          6           0        3.349448    0.554431   -1.028329
      6          6           0        4.449885    1.327624   -0.634459
      7          1           0        5.917610    1.669262    0.894392
      8          1           0        5.083608   -0.132893    2.365615
      9          1           0        3.142966   -1.496439    1.671016
     10          1           0        2.870325    0.744328   -1.966028
     11          1           0        4.810969    2.107872   -1.271430
     12          6           0        1.667261   -1.317141   -0.626901
     13          1           0        1.893153   -1.817133   -1.545531
     14          1           0        1.451446   -2.042006    0.129997
     15          6           0        0.553628   -0.486116   -0.808949
     16          1           0        0.212665   -0.563105   -1.820243
     17          1           0        0.826980    0.527239   -0.600884
     18          6           0       -0.572833   -0.920570    0.147051
     19          1           0       -0.244330   -1.756317    0.728870
     20          1           0       -0.821262   -0.108456    0.797937
     21          6           0       -1.702786   -1.284972   -0.597488
     22          1           0       -1.949446   -2.306205   -0.394651
     23          1           0       -1.495278   -1.168597   -1.640703
     24          6           0       -2.888144   -0.383096   -0.206149
     25          6           0       -4.054502   -0.950050    0.324974
     26          6           0       -2.800460    1.004567   -0.381153
     27          6           0       -5.133177   -0.129343    0.681095
     28          1           0       -4.121450   -2.009562    0.458594
     29          6           0       -3.879136    1.825274   -0.025035
     30          1           0       -1.909919    1.437450   -0.786676
     31          6           0       -5.045494    1.258320    0.506088
     32          1           0       -6.023717   -0.562225    1.086619
     33          1           0       -3.812188    2.884785   -0.158655
     34          1           0       -5.869086    1.884948    0.777995
 ---------------------------------------------------------------------
 Rotational constants (GHZ):           1.4520691           0.1810460           0.1738613
 Standard basis: TZVP (5D, 7F)
 There are   428 symmetry adapted cartesian basis functions of A   symmetry.
 There are   412 symmetry adapted basis functions of A   symmetry.
   412 basis functions,   704 primitive gaussians,   428 cartesian basis functions
    57 alpha electrons       57 beta electrons
       nuclear repulsion energy       963.5999155827 Hartrees.
 NAtoms=   34 NActive=   34 NUniq=   34 SFac= 1.00D+00 NAtFMM=   60 NAOKFM=F Big=F
 Integral buffers will be    131072 words long.
 Raffenetti 2 integral format.
 Two-electron integral symmetry is turned on.
 One-electron integrals computed using PRISM.
 NBasis=   412 RedAO= T EigKep=  9.30D-06  NBF=   412
 NBsUse=   412 1.00D-06 EigRej= -1.00D+00 NBFU=   412
 ExpMin= 9.52D-02 ExpMax= 1.36D+04 ExpMxC= 4.63D+02 IAcc=3 IRadAn=         5 AccDes= 0.00D+00
 Harris functional with IExCor=  402 and IRadAn=       5 diagonalized for initial guess.
 HarFok:  IExCor=  402 AccDes= 0.00D+00 IRadAn=         5 IDoV= 1 UseB2=F ITyADJ=14
 ICtDFT=  3500011 ScaDFX=  1.000000  1.000000  1.000000  1.000000
 FoFCou: FMM=F IPFlag=           0 FMFlag=      100000 FMFlg1=           0
         NFxFlg=           0 DoJE=T BraDBF=F KetDBF=T FulRan=T
         wScrn=  0.000000 ICntrl=       500 IOpCl=  0 I1Cent=   200000004 NGrid=           0
         NMat0=    1 NMatS0=      1 NMatT0=    0 NMatD0=    1 NMtDS0=    0 NMtDT0=    0
 Petite list used in FoFCou.
 Requested convergence on RMS density matrix=1.00D-08 within 128 cycles.
 Requested convergence on MAX density matrix=1.00D-06.
 Requested convergence on             energy=1.00D-06.
 No special actions if energy rises.
 Integral accuracy reduced to 1.0D-05 until final iterations.
 Initial convergence to 1.0D-05 achieved.  Increase integral accuracy.
 SCF Done:  E(RB3LYP) =  -620.694380056     A.U. after   19 cycles
            NFock= 19  Conv=0.82D-08     -V/T= 2.0038

 **********************************************************************

            Population analysis using the SCF Density.

 **********************************************************************

 Orbital symmetries:
       Occupied  (A) (A) (A) (A) (A) (A) (A) (A) (A) (A) (A) (A)
                 (A) (A) (A) (A) (A) (A) (A) (A) (A) (A) (A) (A)
                 (A) (A) (A) (A) (A) (A) (A) (A) (A) (A) (A) (A)
                 (A) (A) (A) (A) (A) (A) (A) (A) (A) (A) (A) (A)
                 (A) (A) (A) (A) (A) (A) (A) (A) (A)
       Virtual   (A) (A) (A) (A) (A) (A) (A) (A) (A) (A) (A) (A)
                 (A) (A) (A) (A) (A) (A) (A) (A) (A) (A) (A) (A)
                 (A) (A) (A) (A) (A) (A) (A) (A) (A) (A) (A) (A)
                 (A) (A) (A) (A) (A) (A) (A) (A) (A) (A) (A) (A)
                 (A) (A) (A) (A) (A) (A) (A) (A) (A) (A) (A) (A)
                 (A) (A) (A) (A) (A) (A) (A) (A) (A) (A) (A) (A)
                 (A) (A) (A) (A) (A) (A) (A) (A) (A) (A) (A) (A)
                 (A) (A) (A) (A) (A) (A) (A) (A) (A) (A) (A) (A)
                 (A) (A) (A) (A) (A) (A) (A) (A) (A) (A) (A) (A)
                 (A) (A) (A) (A) (A) (A) (A) (A) (A) (A) (A) (A)
                 (A) (A) (A) (A) (A) (A) (A) (A) (A) (A) (A) (A)
                 (A) (A) (A) (A) (A) (A) (A) (A) (A) (A) (A) (A)
                 (A) (A) (A) (A) (A) (A) (A) (A) (A) (A) (A) (A)
                 (A) (A) (A) (A) (A) (A) (A) (A) (A) (A) (A) (A)
                 (A) (A) (A) (A) (A) (A) (A) (A) (A) (A) (A) (A)
                 (A) (A) (A) (A) (A) (A) (A) (A) (A) (A) (A) (A)
                 (A) (A) (A) (A) (A) (A) (A) (A) (A) (A) (A) (A)
                 (A) (A) (A) (A) (A) (A) (A) (A) (A) (A) (A) (A)
                 (A) (A) (A) (A) (A) (A) (A) (A) (A) (A) (A) (A)
                 (A) (A) (A) (A) (A) (A) (A) (A) (A) (A) (A) (A)
                 (A) (A) (A) (A) (A) (A) (A) (A) (A) (A) (A) (A)
                 (A) (A) (A) (A) (A) (A) (A) (A) (A) (A) (A) (A)
                 (A) (A) (A) (A) (A) (A) (A) (A) (A) (A) (A) (A)
                 (A) (A) (A) (A) (A) (A) (A) (A) (A) (A) (A) (A)
                 (A) (A) (A) (A) (A) (A) (A) (A) (A) (A) (A) (A)
                 (A) (A) (A) (A) (A) (A) (A) (A) (A) (A) (A) (A)
                 (A) (A) (A) (A) (A) (A) (A) (A) (A) (A) (A) (A)
                 (A) (A) (A) (A) (A) (A) (A) (A) (A) (A) (A) (A)
                 (A) (A) (A) (A) (A) (A) (A) (A) (A) (A) (A) (A)
                 (A) (A) (A) (A) (A) (A) (A)
 The electronic state is 1-A.
 Alpha  occ. eigenvalues --  -10.18236 -10.18187 -10.17638 -10.17593 -10.17532
 Alpha  occ. eigenvalues --  -10.17483 -10.17324 -10.17293 -10.17279 -10.17244
 Alpha  occ. eigenvalues --  -10.17219 -10.17155 -10.15672 -10.15604 -10.14786
 Alpha  occ. eigenvalues --  -10.14728  -0.86621  -0.85820  -0.83356  -0.79131
 Alpha  occ. eigenvalues --   -0.74745  -0.74705  -0.74397  -0.71541  -0.64054
 Alpha  occ. eigenvalues --   -0.61601  -0.60965  -0.60089  -0.58254  -0.57997
 Alpha  occ. eigenvalues --   -0.52525  -0.51699  -0.48582  -0.48127  -0.47149
 Alpha  occ. eigenvalues --   -0.46216  -0.44717  -0.44618  -0.43139  -0.42553
 Alpha  occ. eigenvalues --   -0.42267  -0.41354  -0.39324  -0.38070  -0.37765
 Alpha  occ. eigenvalues --   -0.36257  -0.35825  -0.35138  -0.35006  -0.34413
 Alpha  occ. eigenvalues --   -0.33467  -0.31669  -0.30259  -0.25550  -0.25493
 Alpha  occ. eigenvalues --   -0.24620  -0.24233
 Alpha virt. eigenvalues --   -0.01812  -0.01589  -0.00904  -0.00805   0.04140
 Alpha virt. eigenvalues --    0.04334   0.05042   0.05808   0.06338   0.07293
 Alpha virt. eigenvalues --    0.08154   0.08496   0.09211   0.10150   0.10245
 Alpha virt. eigenvalues --    0.10887   0.11486   0.11852   0.12321   0.13298
 Alpha virt. eigenvalues --    0.14181   0.14486   0.14576   0.15464   0.16096
 Alpha virt. eigenvalues --    0.17492   0.18215   0.18496   0.19511   0.19913
 Alpha virt. eigenvalues --    0.21140   0.21687   0.21953   0.22359   0.22743
 Alpha virt. eigenvalues --    0.23049   0.23370   0.23911   0.24169   0.24911
 Alpha virt. eigenvalues --    0.25387   0.25700   0.26861   0.27263   0.27708
 Alpha virt. eigenvalues --    0.28280   0.28531   0.28899   0.29745   0.30130
 Alpha virt. eigenvalues --    0.30812   0.31361   0.32767   0.33466   0.33690
 Alpha virt. eigenvalues --    0.34633   0.35163   0.35647   0.35882   0.36284
 Alpha virt. eigenvalues --    0.36981   0.37768   0.38320   0.38472   0.39389
 Alpha virt. eigenvalues --    0.40110   0.40119   0.40553   0.41117   0.41816
 Alpha virt. eigenvalues --    0.42221   0.42560   0.42733   0.43829   0.44239
 Alpha virt. eigenvalues --    0.44698   0.45294   0.45933   0.46155   0.46490
 Alpha virt. eigenvalues --    0.46895   0.47748   0.48349   0.48615   0.49254
 Alpha virt. eigenvalues --    0.49653   0.50109   0.50446   0.50668   0.51183
 Alpha virt. eigenvalues --    0.51547   0.52554   0.53149   0.54004   0.54607
 Alpha virt. eigenvalues --    0.55759   0.56300   0.57858   0.57968   0.58660
 Alpha virt. eigenvalues --    0.59649   0.60339   0.60777   0.61816   0.65088
 Alpha virt. eigenvalues --    0.66611   0.67182   0.67630   0.68569   0.68853
 Alpha virt. eigenvalues --    0.68934   0.70063   0.70788   0.71515   0.72188
 Alpha virt. eigenvalues --    0.73144   0.75105   0.77829   0.78532   0.81078
 Alpha virt. eigenvalues --    0.82231   0.90519   0.91021   1.12788   1.15213
 Alpha virt. eigenvalues --    1.17947   1.20688   1.20855   1.22369   1.23344
 Alpha virt. eigenvalues --    1.23774   1.24398   1.25099   1.25612   1.25927
 Alpha virt. eigenvalues --    1.27120   1.27504   1.27947   1.28941   1.29483
 Alpha virt. eigenvalues --    1.29814   1.30057   1.30160   1.30506   1.30644
 Alpha virt. eigenvalues --    1.30714   1.31774   1.33271   1.35214   1.36953
 Alpha virt. eigenvalues --    1.37572   1.38561   1.39324   1.40355   1.41240
 Alpha virt. eigenvalues --    1.41475   1.42350   1.43471   1.43808   1.44625
 Alpha virt. eigenvalues --    1.44810   1.44895   1.44946   1.45199   1.45480
 Alpha virt. eigenvalues --    1.45847   1.46719   1.47386   1.47904   1.48484
 Alpha virt. eigenvalues --    1.49470   1.49731   1.50907   1.51062   1.51264
 Alpha virt. eigenvalues --    1.51628   1.52527   1.52878   1.53538   1.53828
 Alpha virt. eigenvalues --    1.54172   1.54815   1.55030   1.56015   1.56244
 Alpha virt. eigenvalues --    1.56913   1.59192   1.59755   1.60564   1.62020
 Alpha virt. eigenvalues --    1.63382   1.64246   1.65165   1.66359   1.66721
 Alpha virt. eigenvalues --    1.69769   1.70652   1.74601   1.75177   1.77122
 Alpha virt. eigenvalues --    1.77648   1.77796   1.78013   1.78860   1.79453
 Alpha virt. eigenvalues --    1.80018   1.80805   1.81286   1.82427   1.83180
 Alpha virt. eigenvalues --    1.83862   1.84120   1.86492   1.87257   1.87400
 Alpha virt. eigenvalues --    1.87527   1.88061   1.88104   1.89155   1.90798
 Alpha virt. eigenvalues --    1.91240   1.91754   1.92604   1.92923   1.93235
 Alpha virt. eigenvalues --    1.94119   1.96721   1.97815   1.98852   1.99595
 Alpha virt. eigenvalues --    2.00661   2.01478   2.02807   2.02893   2.03817
 Alpha virt. eigenvalues --    2.05937   2.06772   2.08457   2.13161   2.13871
 Alpha virt. eigenvalues --    2.16691   2.18724   2.19473   2.20781   2.22975
 Alpha virt. eigenvalues --    2.25547   2.26845   2.27683   2.30361   2.30561
 Alpha virt. eigenvalues --    2.31413   2.31780   2.32818   2.33066   2.34093
 Alpha virt. eigenvalues --    2.34192   2.35878   2.37308   2.37755   2.38500
 Alpha virt. eigenvalues --    2.39996   2.40458   2.41406   2.44251   2.44784
 Alpha virt. eigenvalues --    2.46516   2.46931   2.48527   2.49251   2.49629
 Alpha virt. eigenvalues --    2.50025   2.52352   2.53307   2.53474   2.53716
 Alpha virt. eigenvalues --    2.57663   2.60293   2.60820   2.61830   2.62218
 Alpha virt. eigenvalues --    2.64278   2.64988   2.65345   2.66978   2.67884
 Alpha virt. eigenvalues --    2.68631   2.69536   2.70378   2.73022   2.73938
 Alpha virt. eigenvalues --    2.74183   2.75297   2.76018   2.78188   2.79013
 Alpha virt. eigenvalues --    2.80125   2.80666   2.81475   2.84493   2.85869
 Alpha virt. eigenvalues --    2.88514   2.91334   2.96789   2.97204   2.99993
 Alpha virt. eigenvalues --    3.03283   3.04469   3.05288   3.06618   3.07017
 Alpha virt. eigenvalues --    3.08836   3.10320   3.13436   3.13771   3.14601
 Alpha virt. eigenvalues --    3.15010   3.16785   3.18943   3.19639   3.20629
 Alpha virt. eigenvalues --    3.21343   3.23379   3.32190   3.32654   3.33269
 Alpha virt. eigenvalues --    3.35037   3.36173   3.40434   3.40748   3.45856
 Alpha virt. eigenvalues --    3.46615   3.50591   3.52028   3.52442   3.54497
 Alpha virt. eigenvalues --    3.55789   3.68150   3.80284   3.80920  21.31370
 Alpha virt. eigenvalues --   21.33924  21.82136  21.85758  21.86891  21.87451
 Alpha virt. eigenvalues --   22.02959  22.07662  22.09717  22.10314  22.13934
 Alpha virt. eigenvalues --   22.21017  22.22654  22.23242  22.29797  22.40566
          Condensed to atoms (all electrons):
               1          2          3          4          5          6
     1  C    4.966875   0.481282  -0.031464  -0.065924  -0.035457   0.475758
     2  C    0.481282   4.990289   0.425938  -0.025958  -0.100489  -0.013819
     3  C   -0.031464   0.425938   5.091636   0.455172  -0.028331  -0.101926
     4  C   -0.065924  -0.025958   0.455172   5.275049   0.430147  -0.026183
     5  C   -0.035457  -0.100489  -0.028331   0.430147   5.141648   0.418624
     6  C    0.475758  -0.013819  -0.101926  -0.026183   0.418624   4.997805
     7  H    0.409826  -0.048527   0.013758  -0.002017   0.014430  -0.051020
     8  H   -0.049625   0.406411  -0.046937   0.014295   0.000537   0.010682
     9  H    0.011684  -0.046269   0.411926  -0.054840   0.014718  -0.002083
    10  H    0.010729  -0.002035   0.013503  -0.046605   0.409022  -0.046577
    11  H   -0.047695   0.010115   0.000815   0.012619  -0.045197   0.404716
    12  C   -0.002574   0.024117  -0.085317   0.164125  -0.081560   0.022202
    13  H    0.000466  -0.001099   0.003198  -0.036365   0.002007  -0.000898
    14  H   -0.000047   0.000683  -0.004091  -0.065923   0.008795  -0.000657
    15  C    0.001633  -0.004483   0.018367  -0.083265   0.004523  -0.006062
    16  H   -0.000051   0.000204  -0.002479   0.005287   0.003386   0.000218
    17  H    0.000636  -0.001388   0.011043  -0.019830   0.003818  -0.002507
    18  C   -0.000123   0.000351  -0.002968   0.027287   0.000740   0.000342
    19  H    0.000021  -0.000196   0.002158  -0.000748  -0.000326  -0.000031
    20  H    0.000005   0.000059  -0.000635  -0.003008   0.000513  -0.000053
    21  C   -0.000008   0.000008   0.000582   0.006777  -0.000095   0.000008
    22  H   -0.000000   0.000004  -0.000093   0.000376   0.000059  -0.000000
    23  H    0.000001  -0.000006   0.000089  -0.000864  -0.000010   0.000001
    24  C    0.000002  -0.000004   0.000031  -0.001683  -0.000131   0.000000
    25  C    0.000000  -0.000000   0.000003  -0.000069  -0.000001  -0.000000
    26  C   -0.000001  -0.000000  -0.000009   0.000537  -0.000045   0.000005
    27  C   -0.000000   0.000000  -0.000000   0.000000   0.000000  -0.000000
    28  H    0.000000   0.000000   0.000000  -0.000000  -0.000000  -0.000000
    29  C    0.000000  -0.000000   0.000001  -0.000009  -0.000001  -0.000000
    30  H    0.000000  -0.000002  -0.000001   0.000101   0.000063  -0.000005
    31  C   -0.000000   0.000000  -0.000000   0.000001   0.000000   0.000000
    32  H   -0.000000   0.000000  -0.000000  -0.000000  -0.000000   0.000000
    33  H    0.000000   0.000000   0.000000  -0.000001  -0.000000  -0.000000
    34  H    0.000000   0.000000  -0.000000  -0.000000   0.000000   0.000000
               7          8          9         10         11         12
     1  C    0.409826  -0.049625   0.011684   0.010729  -0.047695  -0.002574
     2  C   -0.048527   0.406411  -0.046269  -0.002035   0.010115   0.024117
     3  C    0.013758  -0.046937   0.411926   0.013503   0.000815  -0.085317
     4  C   -0.002017   0.014295  -0.054840  -0.046605   0.012619   0.164125
     5  C    0.014430   0.000537   0.014718   0.409022  -0.045197  -0.081560
     6  C   -0.051020   0.010682  -0.002083  -0.046577   0.404716   0.022202
     7  H    0.563770  -0.005570  -0.000330  -0.000295  -0.005614  -0.000043
     8  H   -0.005570   0.568090  -0.005023   0.000047  -0.000361  -0.000887
     9  H   -0.000330  -0.005023   0.571817  -0.000242   0.000056  -0.014355
    10  H   -0.000295   0.000047  -0.000242   0.551617  -0.004606  -0.005497
    11  H   -0.005614  -0.000361   0.000056  -0.004606   0.566096  -0.000794
    12  C   -0.000043  -0.000887  -0.014355  -0.005497  -0.000794   5.480257
    13  H   -0.000000   0.000017   0.000552   0.001180  -0.000009   0.429990
    14  H    0.000002   0.000002   0.003136  -0.000064   0.000015   0.468710
    15  C    0.000014   0.000026   0.000282   0.000258   0.000023   0.098774
    16  H    0.000000  -0.000001  -0.000096  -0.001076  -0.000011  -0.044088
    17  H   -0.000001   0.000010   0.000610   0.002460   0.000078  -0.083570
    18  C   -0.000001  -0.000003  -0.000578   0.000567   0.000007  -0.057358
    19  H   -0.000000  -0.000005   0.000709  -0.000010  -0.000000  -0.020934
    20  H   -0.000000   0.000001  -0.000005  -0.000004  -0.000000   0.015003
    21  C    0.000000   0.000000   0.000041   0.000010  -0.000000  -0.017323
    22  H   -0.000000  -0.000000  -0.000011  -0.000002  -0.000000  -0.002175
    23  H    0.000000  -0.000000   0.000008   0.000043   0.000000   0.000468
    24  C   -0.000000  -0.000000   0.000000  -0.000003  -0.000000   0.007648
    25  C    0.000000   0.000000   0.000000   0.000000  -0.000000   0.000397
    26  C    0.000000  -0.000000  -0.000001  -0.000004  -0.000000  -0.001393
    27  C   -0.000000  -0.000000  -0.000000  -0.000000  -0.000000  -0.000007
    28  H   -0.000000   0.000000   0.000000   0.000000   0.000000   0.000014
    29  C   -0.000000   0.000000   0.000000   0.000000   0.000000  -0.000004
    30  H   -0.000000   0.000000   0.000001   0.000016   0.000000   0.000363
    31  C    0.000000   0.000000  -0.000000   0.000000  -0.000000  -0.000005
    32  H   -0.000000   0.000000   0.000000   0.000000   0.000000   0.000000
    33  H   -0.000000   0.000000   0.000000  -0.000000   0.000000   0.000002
    34  H    0.000000  -0.000000  -0.000000  -0.000000  -0.000000  -0.000000
              13         14         15         16         17         18
     1  C    0.000466  -0.000047   0.001633  -0.000051   0.000636  -0.000123
     2  C   -0.001099   0.000683  -0.004483   0.000204  -0.001388   0.000351
     3  C    0.003198  -0.004091   0.018367  -0.002479   0.011043  -0.002968
     4  C   -0.036365  -0.065923  -0.083265   0.005287  -0.019830   0.027287
     5  C    0.002007   0.008795   0.004523   0.003386   0.003818   0.000740
     6  C   -0.000898  -0.000657  -0.006062   0.000218  -0.002507   0.000342
     7  H   -0.000000   0.000002   0.000014   0.000000  -0.000001  -0.000001
     8  H    0.000017   0.000002   0.000026  -0.000001   0.000010  -0.000003
     9  H    0.000552   0.003136   0.000282  -0.000096   0.000610  -0.000578
    10  H    0.001180  -0.000064   0.000258  -0.001076   0.002460   0.000567
    11  H   -0.000009   0.000015   0.000023  -0.000011   0.000078   0.000007
    12  C    0.429990   0.468710   0.098774  -0.044088  -0.083570  -0.057358
    13  H    0.542779  -0.022464  -0.077911  -0.019678   0.008567   0.009445
    14  H   -0.022464   0.567757  -0.076271   0.009210   0.005602  -0.021787
    15  C   -0.077911  -0.076271   5.442899   0.424289   0.450186   0.149559
    16  H   -0.019678   0.009210   0.424289   0.589057  -0.029806  -0.052001
    17  H    0.008567   0.005602   0.450186  -0.029806   0.528827  -0.041679
    18  C    0.009445  -0.021787   0.149559  -0.052001  -0.041679   5.534808
    19  H    0.002855   0.005672  -0.044652   0.003583   0.006446   0.411835
    20  H   -0.000934   0.002932  -0.056336   0.005814  -0.007663   0.460448
    21  C    0.001135  -0.002939  -0.029839  -0.007745   0.011023   0.081399
    22  H   -0.000651   0.000546   0.013403   0.003905  -0.001162  -0.053762
    23  H    0.000265   0.000982  -0.021407   0.003091   0.003142  -0.098205
    24  C    0.000158   0.000090   0.008431  -0.005678   0.000660  -0.078511
    25  C    0.000009   0.000023  -0.002889  -0.000667   0.000284   0.009723
    26  C   -0.000038  -0.000223  -0.000731   0.002933  -0.000437   0.020545
    27  C   -0.000000  -0.000000   0.000618   0.000018  -0.000045  -0.004529
    28  H   -0.000000  -0.000000  -0.000235  -0.000020   0.000002   0.000734
    29  C    0.000002  -0.000004   0.001493  -0.000301  -0.000025  -0.007079
    30  H   -0.000016  -0.000013  -0.008743  -0.000291   0.001752   0.012729
    31  C    0.000000   0.000000  -0.000270   0.000016   0.000011   0.001518
    32  H   -0.000000   0.000000  -0.000001  -0.000000   0.000000   0.000037
    33  H   -0.000000   0.000000   0.000018  -0.000005  -0.000000   0.000008
    34  H   -0.000000   0.000000   0.000002   0.000000  -0.000000  -0.000003
              19         20         21         22         23         24
     1  C    0.000021   0.000005  -0.000008  -0.000000   0.000001   0.000002
     2  C   -0.000196   0.000059   0.000008   0.000004  -0.000006  -0.000004
     3  C    0.002158  -0.000635   0.000582  -0.000093   0.000089   0.000031
     4  C   -0.000748  -0.003008   0.006777   0.000376  -0.000864  -0.001683
     5  C   -0.000326   0.000513  -0.000095   0.000059  -0.000010  -0.000131
     6  C   -0.000031  -0.000053   0.000008  -0.000000   0.000001   0.000000
     7  H   -0.000000  -0.000000   0.000000  -0.000000   0.000000  -0.000000
     8  H   -0.000005   0.000001   0.000000  -0.000000  -0.000000  -0.000000
     9  H    0.000709  -0.000005   0.000041  -0.000011   0.000008   0.000000
    10  H   -0.000010  -0.000004   0.000010  -0.000002   0.000043  -0.000003
    11  H   -0.000000  -0.000000  -0.000000  -0.000000   0.000000  -0.000000
    12  C   -0.020934   0.015003  -0.017323  -0.002175   0.000468   0.007648
    13  H    0.002855  -0.000934   0.001135  -0.000651   0.000265   0.000158
    14  H    0.005672   0.002932  -0.002939   0.000546   0.000982   0.000090
    15  C   -0.044652  -0.056336  -0.029839   0.013403  -0.021407   0.008431
    16  H    0.003583   0.005814  -0.007745   0.003905   0.003091  -0.005678
    17  H    0.006446  -0.007663   0.011023  -0.001162   0.003142   0.000660
    18  C    0.411835   0.460448   0.081399  -0.053762  -0.098205  -0.078511
    19  H    0.576466  -0.016846  -0.048292  -0.023284   0.009977   0.015577
    20  H   -0.016846   0.516748  -0.089352   0.007308   0.007806  -0.017093
    21  C   -0.048292  -0.089352   5.480353   0.437679   0.447928   0.157550
    22  H   -0.023284   0.007308   0.437679   0.566910  -0.023583  -0.059840
    23  H    0.009977   0.007806   0.447928  -0.023583   0.558845  -0.045311
    24  C    0.015577  -0.017093   0.157550  -0.059840  -0.045311   5.294076
    25  C    0.002028   0.006201  -0.086093  -0.006194   0.003215   0.491152
    26  C   -0.001007  -0.001601  -0.061101   0.012201   0.000385   0.376746
    27  C   -0.000202  -0.000612   0.026150   0.001797  -0.001478  -0.027418
    28  H    0.000061   0.000363  -0.015353   0.004314   0.000470  -0.053844
    29  C    0.000102  -0.002612   0.019476  -0.000998  -0.001045  -0.018592
    30  H    0.000013   0.002250  -0.004127  -0.000080   0.001178  -0.056565
    31  C   -0.000033   0.000548  -0.001729   0.000050   0.000497  -0.066619
    32  H   -0.000004   0.000013  -0.000799  -0.000002   0.000018   0.014350
    33  H    0.000001   0.000040  -0.000859   0.000013  -0.000009   0.012198
    34  H   -0.000000  -0.000000  -0.000026  -0.000001   0.000000  -0.001872
              25         26         27         28         29         30
     1  C    0.000000  -0.000001  -0.000000   0.000000   0.000000   0.000000
     2  C   -0.000000  -0.000000   0.000000   0.000000  -0.000000  -0.000002
     3  C    0.000003  -0.000009  -0.000000   0.000000   0.000001  -0.000001
     4  C   -0.000069   0.000537   0.000000  -0.000000  -0.000009   0.000101
     5  C   -0.000001  -0.000045   0.000000  -0.000000  -0.000001   0.000063
     6  C   -0.000000   0.000005  -0.000000  -0.000000  -0.000000  -0.000005
     7  H    0.000000   0.000000  -0.000000  -0.000000  -0.000000  -0.000000
     8  H    0.000000  -0.000000  -0.000000   0.000000   0.000000   0.000000
     9  H    0.000000  -0.000001  -0.000000   0.000000   0.000000   0.000001
    10  H    0.000000  -0.000004  -0.000000   0.000000   0.000000   0.000016
    11  H   -0.000000  -0.000000  -0.000000   0.000000   0.000000   0.000000
    12  C    0.000397  -0.001393  -0.000007   0.000014  -0.000004   0.000363
    13  H    0.000009  -0.000038  -0.000000  -0.000000   0.000002  -0.000016
    14  H    0.000023  -0.000223  -0.000000  -0.000000  -0.000004  -0.000013
    15  C   -0.002889  -0.000731   0.000618  -0.000235   0.001493  -0.008743
    16  H   -0.000667   0.002933   0.000018  -0.000020  -0.000301  -0.000291
    17  H    0.000284  -0.000437  -0.000045   0.000002  -0.000025   0.001752
    18  C    0.009723   0.020545  -0.004529   0.000734  -0.007079   0.012729
    19  H    0.002028  -0.001007  -0.000202   0.000061   0.000102   0.000013
    20  H    0.006201  -0.001601  -0.000612   0.000363  -0.002612   0.002250
    21  C   -0.086093  -0.061101   0.026150  -0.015353   0.019476  -0.004127
    22  H   -0.006194   0.012201   0.001797   0.004314  -0.000998  -0.000080
    23  H    0.003215   0.000385  -0.001478   0.000470  -0.001045   0.001178
    24  C    0.491152   0.376746  -0.027418  -0.053844  -0.018592  -0.056565
    25  C    5.099253  -0.052921   0.423817   0.411235  -0.093119   0.012735
    26  C   -0.052921   5.198455  -0.103467   0.017306   0.397946   0.413964
    27  C    0.423817  -0.103467   4.997445  -0.049086  -0.011117  -0.002530
    28  H    0.411235   0.017306  -0.049086   0.572627  -0.002674  -0.000161
    29  C   -0.093119   0.397946  -0.011117  -0.002674   5.019559  -0.051937
    30  H    0.012735   0.413964  -0.002530  -0.000161  -0.051937   0.550866
    31  C   -0.039925  -0.025739   0.482701   0.012054   0.463955   0.012015
    32  H   -0.047424   0.000397   0.406506  -0.005166   0.010739   0.000046
    33  H    0.001321  -0.043672   0.009719   0.000052   0.404214  -0.004767
    34  H    0.013882   0.013710  -0.049429  -0.000328  -0.049303  -0.000328
              31         32         33         34
     1  C   -0.000000  -0.000000   0.000000   0.000000
     2  C    0.000000   0.000000   0.000000   0.000000
     3  C   -0.000000  -0.000000   0.000000  -0.000000
     4  C    0.000001  -0.000000  -0.000001  -0.000000
     5  C    0.000000  -0.000000  -0.000000   0.000000
     6  C    0.000000   0.000000  -0.000000   0.000000
     7  H    0.000000  -0.000000  -0.000000   0.000000
     8  H    0.000000   0.000000   0.000000  -0.000000
     9  H   -0.000000   0.000000   0.000000  -0.000000
    10  H    0.000000   0.000000  -0.000000  -0.000000
    11  H   -0.000000   0.000000   0.000000  -0.000000
    12  C   -0.000005   0.000000   0.000002  -0.000000
    13  H    0.000000  -0.000000  -0.000000  -0.000000
    14  H    0.000000   0.000000   0.000000   0.000000
    15  C   -0.000270  -0.000001   0.000018   0.000002
    16  H    0.000016  -0.000000  -0.000005   0.000000
    17  H    0.000011   0.000000  -0.000000  -0.000000
    18  C    0.001518   0.000037   0.000008  -0.000003
    19  H   -0.000033  -0.000004   0.000001  -0.000000
    20  H    0.000548   0.000013   0.000040  -0.000000
    21  C   -0.001729  -0.000799  -0.000859  -0.000026
    22  H    0.000050  -0.000002   0.000013  -0.000001
    23  H    0.000497   0.000018  -0.000009   0.000000
    24  C   -0.066619   0.014350   0.012198  -0.001872
    25  C   -0.039925  -0.047424   0.001321   0.013882
    26  C   -0.025739   0.000397  -0.043672   0.013710
    27  C    0.482701   0.406506   0.009719  -0.049429
    28  H    0.012054  -0.005166   0.000052  -0.000328
    29  C    0.463955   0.010739   0.404214  -0.049303
    30  H    0.012015   0.000046  -0.004767  -0.000328
    31  C    4.975338  -0.049628  -0.047605   0.409250
    32  H   -0.049628   0.568348  -0.000369  -0.005642
    33  H   -0.047605  -0.000369   0.564146  -0.005377
    34  H    0.409250  -0.005642  -0.005377   0.564400
 Mulliken charges:
               1
     1  C   -0.125950
     2  C   -0.095187
     3  C   -0.143967
     4  C    0.041521
     5  C   -0.161389
     6  C   -0.078539
     7  H    0.111619
     8  H    0.108296
     9  H    0.108291
    10  H    0.117568
    11  H    0.109747
    12  C   -0.294185
    13  H    0.157440
    14  H    0.120325
    15  C   -0.201701
    16  H    0.112982
    17  H    0.152958
    18  C   -0.303493
    19  H    0.119069
    20  H    0.170700
    21  C   -0.304439
    22  H    0.123272
    23  H    0.153508
    24  C    0.054496
    25  C   -0.145979
    26  C   -0.162738
    27  C   -0.098850
    28  H    0.107636
    29  C   -0.078667
    30  H    0.121479
    31  C   -0.126401
    32  H    0.108580
    33  H    0.110934
    34  H    0.111063
 Sum of Mulliken charges =  -0.00000
 Mulliken charges with hydrogens summed into heavy atoms:
               1
     1  C   -0.014332
     2  C    0.013109
     3  C   -0.035677
     4  C    0.041521
     5  C   -0.043821
     6  C    0.031209
    12  C   -0.016419
    15  C    0.064239
    18  C   -0.013724
    21  C   -0.027659
    24  C    0.054496
    25  C   -0.038343
    26  C   -0.041259
    27  C    0.009731
    29  C    0.032267
    31  C   -0.015338
 Electronic spatial extent (au):  <R**2>=           6134.6812
 Charge=             -0.0000 electrons
 Dipole moment (field-independent basis, Debye):
    X=              0.0191    Y=             -0.3269    Z=             -0.1527  Tot=              0.3613
 Quadrupole moment (field-independent basis, Debye-Ang):
   XX=            -98.9648   YY=            -92.4532   ZZ=            -97.0088
   XY=              2.8801   XZ=             -0.9463   YZ=             -2.8035
 Traceless Quadrupole moment (field-independent basis, Debye-Ang):
   XX=             -2.8226   YY=              3.6891   ZZ=             -0.8665
   XY=              2.8801   XZ=             -0.9463   YZ=             -2.8035
 Octapole moment (field-independent basis, Debye-Ang**2):
  XXX=            -20.8099  YYY=              1.3632  ZZZ=             -3.9543  XYY=            -11.1989
  XXY=             25.1846  XXZ=             36.6164  XZZ=             20.7636  YZZ=             -4.0559
  YYZ=             -1.1088  XYZ=             -5.4554
 Hexadecapole moment (field-independent basis, Debye-Ang**3):
 XXXX=          -7308.5392 YYYY=           -764.6295 ZZZZ=           -457.8060 XXXY=            136.2777
 XXXZ=            -38.9971 YYYX=             -6.0301 YYYZ=            -15.0295 ZZZX=             21.1183
 ZZZY=             -7.8563 XXYY=          -1297.2788 XXZZ=          -1326.0264 YYZZ=           -210.2511
 XXYZ=            -25.8828 YYXZ=            -16.0423 ZZXY=              6.3331
 N-N= 9.635999155827D+02 E-N=-3.366194823679D+03  KE= 6.183517796176D+02
 Calling FoFJK, ICntrl=      2127 FMM=F ISym2X=0 I1Cent= 0 IOpClX= 0 NMat=1 NMatS=1 NMatT=0.
 ***** Axes restored to original set *****
 -------------------------------------------------------------------
 Center     Atomic                   Forces (Hartrees/Bohr)
 Number     Number              X              Y              Z
 -------------------------------------------------------------------
      1        6           0.000763424    0.014636636    0.007140605
      2        6          -0.012825929    0.010281022   -0.006757051
      3        6          -0.014443989   -0.009511489   -0.015172492
      4        6          -0.000164711   -0.000021965    0.019659843
      5        6           0.013203909   -0.018480231    0.003567113
      6        6           0.012072396    0.007100683    0.012081176
      7        1           0.000258001   -0.008499119   -0.003474058
      8        1           0.006768384   -0.006092017    0.002503623
      9        1           0.005963606    0.002946534    0.006652658
     10        1          -0.007247507    0.005719128   -0.002762829
     11        1          -0.006536310   -0.002796001   -0.006147634
     12        6          -0.014625556   -0.086106129    0.033789444
     13        1          -0.012076513   -0.004485799    0.014792733
     14        1           0.003398809   -0.007075382    0.015643536
     15        6           0.027509087    0.046623095   -0.044175058
     16        1          -0.009415444    0.009369501   -0.009233156
     17        1          -0.002122676    0.000443029   -0.016325312
     18        6          -0.001858088   -0.068528881   -0.016994340
     19        1           0.010819555   -0.009275407    0.006482351
     20        1           0.012795792   -0.008701954   -0.005754955
     21        6           0.009186178    0.091190070   -0.017558822
     22        1          -0.000831463    0.014871441    0.011869953
     23        1          -0.012440186    0.012616859    0.001993130
     24        6          -0.008655922    0.011669182    0.013466765
     25        6          -0.001950529   -0.002195075   -0.023138169
     26        6           0.013574490    0.018035469    0.000311602
     27        6          -0.009921910   -0.013358383   -0.006062682
     28        1           0.000909733    0.001898829    0.009151455
     29        6           0.002190964    0.002369837    0.018218184
     30        1          -0.006014550   -0.006956342   -0.003003538
     31        6          -0.006697690   -0.007781992    0.012659212
     32        1           0.005936439    0.007043027    0.002170560
     33        1          -0.001645700   -0.001882799   -0.009034328
     34        1           0.004123907    0.004934622   -0.006559521
 -------------------------------------------------------------------
 Cartesian Forces:  Max     0.091190070 RMS     0.018627874

 GradGradGradGradGradGradGradGradGradGradGradGradGradGradGradGradGradGrad
 Berny optimization.
 FormGI is forming the generalized inverse of G from B-inverse, IUseBI=4.
 Internal  Forces:  Max     0.130930858 RMS     0.015822581
 Search for a local minimum.
 Step number   1 out of a maximum of  192
 All quantities printed in internal units (Hartrees-Bohrs-Radians)
 Mixed Optimization -- RFO/linear search
 Second derivative matrix not updated -- first step.
 ITU=  0
     Eigenvalues ---    0.00237   0.00237   0.00237   0.01337   0.01337
     Eigenvalues ---    0.02070   0.02070   0.02070   0.02070   0.02070
     Eigenvalues ---    0.02070   0.02070   0.02070   0.02070   0.02070
     Eigenvalues ---    0.02070   0.02070   0.02070   0.02070   0.02070
     Eigenvalues ---    0.02070   0.02070   0.02070   0.04523   0.04523
     Eigenvalues ---    0.05183   0.05183   0.05436   0.05436   0.06273
     Eigenvalues ---    0.06273   0.08258   0.08258   0.08955   0.08955
     Eigenvalues ---    0.11975   0.11975   0.12553   0.12553   0.16000
     Eigenvalues ---    0.16000   0.16000   0.16000   0.16000   0.16000
     Eigenvalues ---    0.16000   0.16000   0.16000   0.16000   0.21955
     Eigenvalues ---    0.21955   0.21990   0.21990   0.22000   0.22000
     Eigenvalues ---    0.22000   0.22000   0.23485   0.23485   0.25000
     Eigenvalues ---    0.25000   0.28519   0.28519   0.28519   0.37230
     Eigenvalues ---    0.37230   0.37230   0.37230   0.37230   0.37230
     Eigenvalues ---    0.37230   0.37230   0.37230   0.37230   0.37230
     Eigenvalues ---    0.37230   0.37230   0.37230   0.37230   0.37230
     Eigenvalues ---    0.37230   0.37230   0.41268   0.41268   0.41459
     Eigenvalues ---    0.41459   0.45389   0.45389   0.45389   0.45389
     Eigenvalues ---    0.45389   0.45389   0.45389   0.45389   0.45389
     Eigenvalues ---    0.45389
 RFO step:  Lambda=-9.80600292D-02 EMin= 2.36824174D-03
 Linear search not attempted -- first point.
 Maximum step size (   0.300) exceeded in Quadratic search.
    -- Step size scaled by   0.665
 Iteration  1 RMS(Cart)=  0.14889684 RMS(Int)=  0.00154147
 Iteration  2 RMS(Cart)=  0.00294272 RMS(Int)=  0.00033588
 Iteration  3 RMS(Cart)=  0.00000783 RMS(Int)=  0.00033588
 Iteration  4 RMS(Cart)=  0.00000000 RMS(Int)=  0.00033588
 Variable       Old X    -DE/DX   Delta X   Delta X   Delta X     New X
                                 (Linear)    (Quad)   (Total)
    R1        2.64826  -0.01059   0.00000  -0.01286  -0.01286   2.63540
    R2        2.64826  -0.00854   0.00000  -0.01039  -0.01040   2.63786
    R3        2.02201   0.00919   0.00000   0.01298   0.01298   2.03499
    R4        2.64826  -0.00661   0.00000  -0.00795  -0.00795   2.64031
    R5        2.02201   0.00944   0.00000   0.01334   0.01334   2.03535
    R6        2.64826  -0.00616   0.00000  -0.00731  -0.00730   2.64096
    R7        2.02201   0.00939   0.00000   0.01327   0.01327   2.03528
    R8        2.64826  -0.00427   0.00000  -0.00505  -0.00504   2.64322
    R9        2.91018  -0.00230   0.00000  -0.00399  -0.00399   2.90619
   R10        2.64826  -0.00893   0.00000  -0.01077  -0.01077   2.63749
   R11        2.02201   0.00962   0.00000   0.01360   0.01360   2.03560
   R12        2.02201   0.00940   0.00000   0.01328   0.01328   2.03529
   R13        2.02201   0.01685   0.00000   0.02381   0.02381   2.04582
   R14        2.02201   0.01190   0.00000   0.01682   0.01682   2.03882
   R15        2.64826   0.13093   0.00000   0.15770   0.15770   2.80596
   R16        2.02201   0.01333   0.00000   0.01884   0.01884   2.04085
   R17        2.02201   0.01385   0.00000   0.01957   0.01957   2.04158
   R18        2.91018   0.03174   0.00000   0.05505   0.05505   2.96523
   R19        2.02201   0.01305   0.00000   0.01844   0.01844   2.04045
   R20        2.02201   0.01341   0.00000   0.01895   0.01895   2.04096
   R21        2.64826   0.13071   0.00000   0.15744   0.15744   2.80570
   R22        2.02201   0.01560   0.00000   0.02205   0.02205   2.04406
   R23        2.02201   0.01309   0.00000   0.01850   0.01850   2.04050
   R24        2.91018  -0.00213   0.00000  -0.00369  -0.00369   2.90649
   R25        2.64826  -0.00612   0.00000  -0.00726  -0.00726   2.64101
   R26        2.64826  -0.00431   0.00000  -0.00509  -0.00509   2.64318
   R27        2.64826  -0.00659   0.00000  -0.00792  -0.00792   2.64034
   R28        2.02201   0.00937   0.00000   0.01325   0.01325   2.03525
   R29        2.64826  -0.00890   0.00000  -0.01073  -0.01074   2.63753
   R30        2.02201   0.00965   0.00000   0.01364   0.01364   2.03565
   R31        2.64826  -0.01058   0.00000  -0.01284  -0.01284   2.63542
   R32        2.02201   0.00946   0.00000   0.01337   0.01337   2.03538
   R33        2.64826  -0.00858   0.00000  -0.01045  -0.01045   2.63781
   R34        2.02201   0.00937   0.00000   0.01325   0.01325   2.03525
   R35        2.02201   0.00919   0.00000   0.01298   0.01298   2.03499
    A1        2.09440  -0.00163   0.00000  -0.00399  -0.00400   2.09039
    A2        2.09440   0.00082   0.00000   0.00202   0.00202   2.09642
    A3        2.09440   0.00081   0.00000   0.00198   0.00198   2.09638
    A4        2.09440   0.00053   0.00000   0.00075   0.00074   2.09514
    A5        2.09440  -0.00046   0.00000  -0.00088  -0.00088   2.09352
    A6        2.09440  -0.00007   0.00000   0.00013   0.00013   2.09453
    A7        2.09440   0.00375   0.00000   0.00785   0.00786   2.10225
    A8        2.09440  -0.00144   0.00000  -0.00279  -0.00280   2.09160
    A9        2.09440  -0.00232   0.00000  -0.00506  -0.00506   2.08934
   A10        2.09440  -0.00709   0.00000  -0.01340  -0.01339   2.08100
   A11        2.09440   0.00370   0.00000   0.00700   0.00699   2.10139
   A12        2.09440   0.00339   0.00000   0.00641   0.00640   2.10080
   A13        2.09440   0.00323   0.00000   0.00669   0.00669   2.10109
   A14        2.09440  -0.00120   0.00000  -0.00229  -0.00229   2.09210
   A15        2.09440  -0.00202   0.00000  -0.00440  -0.00440   2.08999
   A16        2.09440   0.00121   0.00000   0.00211   0.00210   2.09649
   A17        2.09440  -0.00063   0.00000  -0.00112  -0.00112   2.09328
   A18        2.09440  -0.00058   0.00000  -0.00098  -0.00098   2.09341
   A19        1.91063  -0.01207   0.00000  -0.03118  -0.03210   1.87853
   A20        1.91063  -0.01311   0.00000  -0.03360  -0.03474   1.87590
   A21        1.91063   0.02688   0.00000   0.06063   0.06043   1.97106
   A22        1.91063  -0.00158   0.00000  -0.01856  -0.01951   1.89112
   A23        1.91063  -0.00110   0.00000   0.00792   0.00833   1.91896
   A24        1.91063   0.00098   0.00000   0.01479   0.01516   1.92580
   A25        1.91063  -0.00657   0.00000  -0.00526  -0.00500   1.90564
   A26        1.91063  -0.00684   0.00000  -0.00629  -0.00601   1.90463
   A27        1.91063   0.03623   0.00000   0.08109   0.08097   1.99160
   A28        1.91063   0.00168   0.00000  -0.01359  -0.01445   1.89619
   A29        1.91063  -0.01226   0.00000  -0.02791  -0.02875   1.88189
   A30        1.91063  -0.01224   0.00000  -0.02804  -0.02883   1.88180
   A31        1.91063  -0.01222   0.00000  -0.02726  -0.02800   1.88264
   A32        1.91063  -0.01257   0.00000  -0.02794  -0.02882   1.88182
   A33        1.91063   0.03814   0.00000   0.08535   0.08521   1.99584
   A34        1.91063   0.00171   0.00000  -0.01445  -0.01533   1.89530
   A35        1.91063  -0.00796   0.00000  -0.00940  -0.00917   1.90146
   A36        1.91063  -0.00710   0.00000  -0.00630  -0.00610   1.90453
   A37        1.91063  -0.00100   0.00000   0.00766   0.00812   1.91875
   A38        1.91063   0.00124   0.00000   0.01588   0.01618   1.92682
   A39        1.91063   0.02635   0.00000   0.05951   0.05931   1.96995
   A40        1.91063  -0.00168   0.00000  -0.01873  -0.01967   1.89097
   A41        1.91063  -0.01246   0.00000  -0.03294  -0.03380   1.87684
   A42        1.91063  -0.01245   0.00000  -0.03138  -0.03257   1.87806
   A43        2.09440   0.00449   0.00000   0.00851   0.00851   2.10290
   A44        2.09440   0.00260   0.00000   0.00489   0.00489   2.09929
   A45        2.09440  -0.00710   0.00000  -0.01341  -0.01340   2.08100
   A46        2.09440   0.00380   0.00000   0.00795   0.00796   2.10235
   A47        2.09440  -0.00237   0.00000  -0.00520  -0.00520   2.08919
   A48        2.09440  -0.00142   0.00000  -0.00275  -0.00275   2.09164
   A49        2.09440   0.00317   0.00000   0.00658   0.00658   2.10097
   A50        2.09440  -0.00098   0.00000  -0.00174  -0.00174   2.09266
   A51        2.09440  -0.00219   0.00000  -0.00484  -0.00484   2.08955
   A52        2.09440   0.00048   0.00000   0.00064   0.00064   2.09503
   A53        2.09440  -0.00002   0.00000   0.00023   0.00024   2.09463
   A54        2.09440  -0.00045   0.00000  -0.00087  -0.00087   2.09352
   A55        2.09440   0.00128   0.00000   0.00225   0.00224   2.09664
   A56        2.09440  -0.00064   0.00000  -0.00113  -0.00112   2.09327
   A57        2.09440  -0.00064   0.00000  -0.00112  -0.00112   2.09328
   A58        2.09440  -0.00164   0.00000  -0.00401  -0.00402   2.09038
   A59        2.09440   0.00084   0.00000   0.00205   0.00205   2.09645
   A60        2.09440   0.00080   0.00000   0.00196   0.00196   2.09636
    D1        0.00000   0.00008   0.00000   0.00042   0.00041   0.00042
    D2       -3.14159  -0.00005   0.00000  -0.00029  -0.00030   3.14129
    D3        3.14159   0.00017   0.00000   0.00094   0.00094  -3.14066
    D4        0.00000   0.00004   0.00000   0.00022   0.00022   0.00022
    D5       -0.00000   0.00013   0.00000   0.00075   0.00075   0.00075
    D6       -3.14159   0.00019   0.00000   0.00104   0.00105  -3.14054
    D7       -3.14159   0.00004   0.00000   0.00023   0.00023  -3.14137
    D8        0.00000   0.00009   0.00000   0.00053   0.00053   0.00053
    D9       -0.00000  -0.00042   0.00000  -0.00237  -0.00238  -0.00238
   D10        3.14159  -0.00014   0.00000  -0.00077  -0.00078   3.14081
   D11        3.14159  -0.00030   0.00000  -0.00165  -0.00166   3.13993
   D12       -0.00000  -0.00001   0.00000  -0.00006  -0.00006  -0.00006
   D13       -0.00000   0.00056   0.00000   0.00315   0.00315   0.00315
   D14        3.14159   0.00063   0.00000   0.00351   0.00351  -3.13808
   D15        3.14159   0.00028   0.00000   0.00155   0.00155  -3.14005
   D16       -0.00000   0.00034   0.00000   0.00192   0.00191   0.00191
   D17        0.00000  -0.00036   0.00000  -0.00198  -0.00198  -0.00198
   D18        3.14159  -0.00034   0.00000  -0.00189  -0.00188   3.13971
   D19       -3.14159  -0.00042   0.00000  -0.00235  -0.00234   3.13925
   D20       -0.00000  -0.00040   0.00000  -0.00225  -0.00225  -0.00225
   D21       -2.09440   0.00784   0.00000   0.02664   0.02584  -2.06856
   D22       -0.00000  -0.00951   0.00000  -0.03576  -0.03492  -0.03492
   D23        2.09440   0.00012   0.00000  -0.00110  -0.00115   2.09324
   D24        1.04720   0.00790   0.00000   0.02700   0.02621   1.07340
   D25        3.14159  -0.00945   0.00000  -0.03540  -0.03455   3.10704
   D26       -1.04720   0.00018   0.00000  -0.00074  -0.00079  -1.04798
   D27       -0.00000   0.00001   0.00000   0.00003   0.00004   0.00004
   D28        3.14159  -0.00005   0.00000  -0.00026  -0.00026   3.14133
   D29       -3.14159  -0.00001   0.00000  -0.00006  -0.00005   3.14154
[...]
     7  H    0.407399  -0.048318   0.013903  -0.002066   0.013903  -0.048319
     8  H   -0.049918   0.404480  -0.044083   0.012940   0.000051   0.011391
     9  H    0.011924  -0.048502   0.411867  -0.054919   0.013968  -0.002106
    10  H    0.011924  -0.002106   0.013968  -0.054919   0.411866  -0.048502
    11  H   -0.049918   0.011391   0.000051   0.012940  -0.044084   0.404481
    12  C    0.000636   0.017364  -0.068638   0.163504  -0.068639   0.017364
    13  H    0.000249  -0.001188   0.008064  -0.062401   0.001153   0.000091
    14  H    0.000249   0.000090   0.001154  -0.062407   0.008065  -0.001188
    15  C    0.000212  -0.000196  -0.011149  -0.047613  -0.011150  -0.000195
    16  H    0.000013  -0.000295   0.003225  -0.000051   0.002038  -0.000533
    17  H    0.000013  -0.000533   0.002038  -0.000047   0.003225  -0.000295
    18  C   -0.000053   0.000121  -0.000590   0.015136  -0.000590   0.000121
    19  H    0.000000   0.000005  -0.000253  -0.000964   0.000720  -0.000011
    20  H    0.000000  -0.000011   0.000720  -0.000966  -0.000253   0.000005
    21  C    0.000001   0.000002  -0.000110  -0.001479  -0.000110   0.000002
    22  H    0.000000  -0.000002   0.000033  -0.000072  -0.000057   0.000002
    23  H    0.000000   0.000002  -0.000057  -0.000072   0.000033  -0.000002
    24  C   -0.000000   0.000000  -0.000002   0.000109  -0.000002   0.000000
    25  C   -0.000000   0.000000   0.000000  -0.000002  -0.000001  -0.000000
    26  C   -0.000000  -0.000000  -0.000001  -0.000002   0.000000   0.000000
    27  C   -0.000000   0.000000   0.000000   0.000000  -0.000000   0.000000
    28  H   -0.000000  -0.000000  -0.000000  -0.000003  -0.000000  -0.000000
    29  C   -0.000000   0.000000  -0.000000   0.000000   0.000000   0.000000
    30  H   -0.000000  -0.000000  -0.000000  -0.000003  -0.000000  -0.000000
    31  C    0.000000  -0.000000  -0.000000  -0.000000  -0.000000  -0.000000
    32  H   -0.000000   0.000000  -0.000000  -0.000000  -0.000000  -0.000000
    33  H   -0.000000  -0.000000  -0.000000  -0.000000  -0.000000   0.000000
    34  H    0.000000   0.000000   0.000000  -0.000000   0.000000   0.000000
               7          8          9         10         11         12
     1  C    0.407399  -0.049918   0.011924   0.011924  -0.049918   0.000636
     2  C   -0.048318   0.404480  -0.048502  -0.002106   0.011391   0.017364
     3  C    0.013903  -0.044083   0.411867   0.013968   0.000051  -0.068638
     4  C   -0.002066   0.012940  -0.054919  -0.054919   0.012940   0.163504
     5  C    0.013903   0.000051   0.013968   0.411866  -0.044084  -0.068639
     6  C   -0.048319   0.011391  -0.002106  -0.048502   0.404481   0.017364
     7  H    0.566286  -0.005954  -0.000329  -0.000329  -0.005954  -0.000035
     8  H   -0.005954   0.571273  -0.005739   0.000059  -0.000361  -0.000853
     9  H   -0.000329  -0.005739   0.573270  -0.000312   0.000059  -0.004660
    10  H   -0.000329   0.000059  -0.000312   0.573270  -0.005739  -0.004659
    11  H   -0.005954  -0.000361   0.000059  -0.005739   0.571273  -0.000853
    12  C   -0.000035  -0.000853  -0.004660  -0.004659  -0.000853   5.317260
    13  H   -0.000000   0.000020   0.000369   0.002022  -0.000035   0.437283
    14  H   -0.000000  -0.000035   0.002022   0.000369   0.000020   0.437281
    15  C    0.000006  -0.000003  -0.003091  -0.003091  -0.000003   0.197800
    16  H   -0.000001  -0.000003   0.000113   0.001046   0.000014  -0.044989
    17  H   -0.000001   0.000014   0.001046   0.000113  -0.000003  -0.044982
    18  C   -0.000000  -0.000003  -0.000260  -0.000260  -0.000003  -0.033018
    19  H   -0.000000   0.000000   0.000008   0.000049  -0.000000  -0.002988
    20  H   -0.000000  -0.000000   0.000049   0.000008   0.000000  -0.002991
    21  C    0.000000   0.000000  -0.000011  -0.000011   0.000000   0.015325
    22  H   -0.000000  -0.000000   0.000000  -0.000001   0.000000  -0.000368
    23  H   -0.000000   0.000000  -0.000001   0.000000  -0.000000  -0.000367
    24  C   -0.000000  -0.000000  -0.000003  -0.000003  -0.000000  -0.001479
    25  C    0.000000  -0.000000  -0.000000  -0.000000  -0.000000  -0.000110
    26  C    0.000000  -0.000000  -0.000000  -0.000000  -0.000000  -0.000110
    27  C    0.000000   0.000000  -0.000000  -0.000000  -0.000000   0.000002
    28  H   -0.000000  -0.000000  -0.000000  -0.000000  -0.000000  -0.000011
    29  C    0.000000  -0.000000  -0.000000  -0.000000   0.000000   0.000002
    30  H   -0.000000  -0.000000  -0.000000  -0.000000  -0.000000  -0.000011
    31  C    0.000000  -0.000000  -0.000000  -0.000000  -0.000000   0.000001
    32  H   -0.000000   0.000000  -0.000000  -0.000000  -0.000000   0.000000
    33  H   -0.000000  -0.000000  -0.000000  -0.000000   0.000000   0.000000
    34  H    0.000000  -0.000000  -0.000000  -0.000000  -0.000000   0.000000
              13         14         15         16         17         18
     1  C    0.000249   0.000249   0.000212   0.000013   0.000013  -0.000053
     2  C   -0.001188   0.000090  -0.000196  -0.000295  -0.000533   0.000121
     3  C    0.008064   0.001154  -0.011149   0.003225   0.002038  -0.000590
     4  C   -0.062401  -0.062407  -0.047613  -0.000051  -0.000047   0.015136
     5  C    0.001153   0.008065  -0.011150   0.002038   0.003225  -0.000590
     6  C    0.000091  -0.001188  -0.000195  -0.000533  -0.000295   0.000121
     7  H   -0.000000  -0.000000   0.000006  -0.000001  -0.000001  -0.000000
     8  H    0.000020  -0.000035  -0.000003  -0.000003   0.000014  -0.000003
     9  H    0.000369   0.002022  -0.003091   0.000113   0.001046  -0.000260
    10  H    0.002022   0.000369  -0.003091   0.001046   0.000113  -0.000260
    11  H   -0.000035   0.000020  -0.000003   0.000014  -0.000003  -0.000003
    12  C    0.437283   0.437281   0.197800  -0.044989  -0.044982  -0.033018
    13  H    0.556658  -0.026623  -0.050786  -0.002054   0.006395  -0.004958
    14  H   -0.026623   0.556661  -0.050781   0.006395  -0.002054  -0.004957
    15  C   -0.050786  -0.050781   5.329911   0.419057   0.419056   0.160514
    16  H   -0.002054   0.006395   0.419057   0.565988  -0.021197  -0.047480
    17  H    0.006395  -0.002054   0.419056  -0.021197   0.565985  -0.047481
    18  C   -0.004958  -0.004957   0.160514  -0.047480  -0.047481   5.329906
    19  H    0.001199   0.001938  -0.047478  -0.000735   0.006238   0.419050
    20  H    0.001938   0.001200  -0.047486   0.006238  -0.000737   0.419067
    21  C   -0.000368  -0.000367  -0.033017  -0.002989  -0.002991   0.197789
    22  H    0.000291  -0.000110  -0.004961   0.001199   0.001938  -0.050776
    23  H   -0.000110   0.000291  -0.004955   0.001938   0.001199  -0.050792
    24  C   -0.000072  -0.000072   0.015138  -0.000964  -0.000966  -0.047606
    25  C   -0.000057   0.000033  -0.000590   0.000720  -0.000253  -0.011148
    26  C    0.000033  -0.000057  -0.000590  -0.000253   0.000720  -0.011150
    27  C    0.000002  -0.000002   0.000121  -0.000011   0.000005  -0.000195
    28  H   -0.000001   0.000000  -0.000260   0.000049   0.000008  -0.003091
    29  C   -0.000002   0.000002   0.000121   0.000005  -0.000011  -0.000195
    30  H    0.000000  -0.000001  -0.000260   0.000008   0.000049  -0.003091
    31  C    0.000000   0.000000  -0.000053   0.000000   0.000000   0.000212
    32  H    0.000000  -0.000000  -0.000003  -0.000000   0.000000  -0.000003
    33  H   -0.000000   0.000000  -0.000003   0.000000  -0.000000  -0.000003
    34  H   -0.000000  -0.000000  -0.000000  -0.000000  -0.000000   0.000006
              19         20         21         22         23         24
     1  C    0.000000   0.000000   0.000001   0.000000   0.000000  -0.000000
     2  C    0.000005  -0.000011   0.000002  -0.000002   0.000002   0.000000
     3  C   -0.000253   0.000720  -0.000110   0.000033  -0.000057  -0.000002
     4  C   -0.000964  -0.000966  -0.001479  -0.000072  -0.000072   0.000109
     5  C    0.000720  -0.000253  -0.000110  -0.000057   0.000033  -0.000002
     6  C   -0.000011   0.000005   0.000002   0.000002  -0.000002   0.000000
     7  H   -0.000000  -0.000000   0.000000  -0.000000  -0.000000  -0.000000
     8  H    0.000000  -0.000000   0.000000  -0.000000   0.000000  -0.000000
     9  H    0.000008   0.000049  -0.000011   0.000000  -0.000001  -0.000003
    10  H    0.000049   0.000008  -0.000011  -0.000001   0.000000  -0.000003
    11  H   -0.000000   0.000000   0.000000   0.000000  -0.000000  -0.000000
    12  C   -0.002988  -0.002991   0.015325  -0.000368  -0.000367  -0.001479
    13  H    0.001199   0.001938  -0.000368   0.000291  -0.000110  -0.000072
    14  H    0.001938   0.001200  -0.000367  -0.000110   0.000291  -0.000072
    15  C   -0.047478  -0.047486  -0.033017  -0.004961  -0.004955   0.015138
    16  H   -0.000735   0.006238  -0.002989   0.001199   0.001938  -0.000964
    17  H    0.006238  -0.000737  -0.002991   0.001938   0.001199  -0.000966
    18  C    0.419050   0.419067   0.197789  -0.050776  -0.050792  -0.047606
    19  H    0.565990  -0.021198  -0.044979  -0.002055   0.006395  -0.000054
    20  H   -0.021198   0.565987  -0.044992   0.006395  -0.002053  -0.000046
    21  C   -0.044979  -0.044992   5.317258   0.437273   0.437302   0.163496
    22  H   -0.002055   0.006395   0.437273   0.556659  -0.026624  -0.062397
    23  H    0.006395  -0.002053   0.437302  -0.026624   0.556665  -0.062420
    24  C   -0.000054  -0.000046   0.163496  -0.062397  -0.062420   5.128367
    25  C    0.002039   0.003226  -0.068635   0.001155   0.008063   0.455089
    26  C    0.003225   0.002038  -0.068634   0.008064   0.001155   0.455077
    27  C   -0.000533  -0.000295   0.017363   0.000091  -0.001188  -0.019724
    28  H    0.001046   0.000113  -0.004659   0.002022   0.000369  -0.054918
    29  C   -0.000295  -0.000533   0.017363  -0.001188   0.000091  -0.019727
    30  H    0.000113   0.001046  -0.004659   0.000369   0.002021  -0.054919
    31  C    0.000013   0.000013   0.000637   0.000249   0.000249  -0.065416
    32  H    0.000014  -0.000003  -0.000853  -0.000035   0.000020   0.012940
    33  H   -0.000003   0.000014  -0.000853   0.000020  -0.000035   0.012940
    34  H   -0.000001  -0.000001  -0.000035  -0.000000  -0.000000  -0.002066
              25         26         27         28         29         30
     1  C   -0.000000  -0.000000  -0.000000  -0.000000  -0.000000  -0.000000
     2  C    0.000000  -0.000000   0.000000  -0.000000   0.000000  -0.000000
     3  C    0.000000  -0.000001   0.000000  -0.000000  -0.000000  -0.000000
     4  C   -0.000002  -0.000002   0.000000  -0.000003   0.000000  -0.000003
     5  C   -0.000001   0.000000  -0.000000  -0.000000   0.000000  -0.000000
     6  C   -0.000000   0.000000   0.000000  -0.000000   0.000000  -0.000000
     7  H    0.000000   0.000000   0.000000  -0.000000   0.000000  -0.000000
     8  H   -0.000000  -0.000000   0.000000  -0.000000  -0.000000  -0.000000
     9  H   -0.000000  -0.000000  -0.000000  -0.000000  -0.000000  -0.000000
    10  H   -0.000000  -0.000000  -0.000000  -0.000000  -0.000000  -0.000000
    11  H   -0.000000  -0.000000  -0.000000  -0.000000   0.000000  -0.000000
    12  C   -0.000110  -0.000110   0.000002  -0.000011   0.000002  -0.000011
    13  H   -0.000057   0.000033   0.000002  -0.000001  -0.000002   0.000000
    14  H    0.000033  -0.000057  -0.000002   0.000000   0.000002  -0.000001
    15  C   -0.000590  -0.000590   0.000121  -0.000260   0.000121  -0.000260
    16  H    0.000720  -0.000253  -0.000011   0.000049   0.000005   0.000008
    17  H   -0.000253   0.000720   0.000005   0.000008  -0.000011   0.000049
    18  C   -0.011148  -0.011150  -0.000195  -0.003091  -0.000195  -0.003091
    19  H    0.002039   0.003225  -0.000533   0.001046  -0.000295   0.000113
    20  H    0.003226   0.002038  -0.000295   0.000113  -0.000533   0.001046
    21  C   -0.068635  -0.068634   0.017363  -0.004659   0.017363  -0.004659
    22  H    0.001155   0.008064   0.000091   0.002022  -0.001188   0.000369
    23  H    0.008063   0.001155  -0.001188   0.000369   0.000091   0.002021
    24  C    0.455089   0.455077  -0.019724  -0.054918  -0.019727  -0.054919
    25  C    5.103481  -0.015986   0.431585   0.411866  -0.102010   0.013968
    26  C   -0.015986   5.103485  -0.102012   0.013968   0.431591   0.411866
    27  C    0.431585  -0.102012   4.986015  -0.048504  -0.022548  -0.002106
    28  H    0.411866   0.013968  -0.048504   0.573270  -0.002106  -0.000312
    29  C   -0.102010   0.431591  -0.022548  -0.002106   4.986014  -0.048501
    30  H    0.013968   0.411866  -0.002106  -0.000312  -0.048501   0.573269
    31  C   -0.032642  -0.032639   0.475055   0.011924   0.475049   0.011923
    32  H   -0.044084   0.000051   0.404480  -0.005739   0.011391   0.000059
    33  H    0.000052  -0.044083   0.011391   0.000059   0.404480  -0.005739
    34  H    0.013903   0.013903  -0.048318  -0.000329  -0.048319  -0.000329
              31         32         33         34
     1  C    0.000000  -0.000000  -0.000000   0.000000
     2  C   -0.000000   0.000000  -0.000000   0.000000
     3  C   -0.000000  -0.000000  -0.000000   0.000000
     4  C   -0.000000  -0.000000  -0.000000  -0.000000
     5  C   -0.000000  -0.000000  -0.000000   0.000000
     6  C   -0.000000  -0.000000   0.000000   0.000000
     7  H    0.000000  -0.000000  -0.000000   0.000000
     8  H   -0.000000   0.000000  -0.000000  -0.000000
     9  H   -0.000000  -0.000000  -0.000000  -0.000000
    10  H   -0.000000  -0.000000  -0.000000  -0.000000
    11  H   -0.000000  -0.000000   0.000000  -0.000000
    12  C    0.000001   0.000000   0.000000   0.000000
    13  H    0.000000   0.000000  -0.000000  -0.000000
    14  H    0.000000  -0.000000   0.000000  -0.000000
    15  C   -0.000053  -0.000003  -0.000003  -0.000000
    16  H    0.000000  -0.000000   0.000000  -0.000000
    17  H    0.000000   0.000000  -0.000000  -0.000000
    18  C    0.000212  -0.000003  -0.000003   0.000006
    19  H    0.000013   0.000014  -0.000003  -0.000001
    20  H    0.000013  -0.000003   0.000014  -0.000001
    21  C    0.000637  -0.000853  -0.000853  -0.000035
    22  H    0.000249  -0.000035   0.000020  -0.000000
    23  H    0.000249   0.000020  -0.000035  -0.000000
    24  C   -0.065416   0.012940   0.012940  -0.002066
    25  C   -0.032642  -0.044084   0.000052   0.013903
    26  C   -0.032639   0.000051  -0.044083   0.013903
    27  C    0.475055   0.404480   0.011391  -0.048318
    28  H    0.011924  -0.005739   0.000059  -0.000329
    29  C    0.475049   0.011391   0.404480  -0.048319
    30  H    0.011923   0.000059  -0.005739  -0.000329
    31  C    4.975132  -0.049917  -0.049918   0.407399
    32  H   -0.049917   0.571273  -0.000361  -0.005954
    33  H   -0.049918  -0.000361   0.571273  -0.005954
    34  H    0.407399  -0.005954  -0.005954   0.566286
 Mulliken charges:
               1
     1  C   -0.127273
     2  C   -0.080672
     3  C   -0.169663
     4  C    0.149707
     5  C   -0.169666
     6  C   -0.080672
     7  H    0.109808
     8  H    0.106724
     9  H    0.105238
    10  H    0.105239
    11  H    0.106724
    12  C   -0.324062
    13  H    0.132888
    14  H    0.132884
    15  C   -0.224222
    16  H    0.113507
    17  H    0.113508
    18  C   -0.224219
    19  H    0.113506
    20  H    0.113508
    21  C   -0.324059
    22  H    0.132887
    23  H    0.132884
    24  C    0.149700
    25  C   -0.169661
    26  C   -0.169660
    27  C   -0.080674
    28  H    0.105239
    29  C   -0.080673
    30  H    0.105239
    31  C   -0.127272
    32  H    0.106724
    33  H    0.106724
    34  H    0.109808
 Sum of Mulliken charges =  -0.00000
 Mulliken charges with hydrogens summed into heavy atoms:
               1
     1  C   -0.017465
     2  C    0.026052
     3  C   -0.064425
     4  C    0.149707
     5  C   -0.064427
     6  C    0.026052
    12  C   -0.058289
    15  C    0.002793
    18  C    0.002795
    21  C   -0.058288
    24  C    0.149700
    25  C   -0.064422
    26  C   -0.064421
    27  C    0.026050
    29  C    0.026051
    31  C   -0.017463
 Electronic spatial extent (au):  <R**2>=           7337.1086
 Charge=              0.0000 electrons
 Dipole moment (field-independent basis, Debye):
    X=             -0.0000    Y=             -0.0000    Z=             -0.0000  Tot=              0.0000
 Quadrupole moment (field-independent basis, Debye-Ang):
   XX=            -96.3103   YY=            -89.4246   ZZ=           -103.2983
   XY=             -0.0000   XZ=             -4.2031   YZ=             -0.0001
 Traceless Quadrupole moment (field-independent basis, Debye-Ang):
   XX=              0.0341   YY=              6.9198   ZZ=             -6.9539
   XY=             -0.0000   XZ=             -4.2031   YZ=             -0.0001
 Octapole moment (field-independent basis, Debye-Ang**2):
  XXX=             -0.0008  YYY=              0.0002  ZZZ=             -0.0000  XYY=             -0.0000
  XXY=              0.0022  XXZ=             -0.0006  XZZ=              0.0000  YZZ=             -0.0003
  YYZ=             -0.0000  XYZ=              0.0029
 Hexadecapole moment (field-independent basis, Debye-Ang**3):
 XXXX=          -8971.2842 YYYY=           -608.2271 ZZZZ=           -298.6676 XXXY=             -0.0050
 XXXZ=           -307.3006 YYYX=              0.0005 YYYZ=             -0.0004 ZZZX=              3.5133
 ZZZY=             -0.0000 XXYY=          -1546.7577 XXZZ=          -1782.7520 YYZZ=           -164.2844
 XXYZ=             -0.0009 YYXZ=             -8.3267 ZZXY=              0.0001
 N-N= 9.317628134153D+02 E-N=-3.301866088008D+03  KE= 6.174966455839D+02
 Unable to Open any file for archive entry.
 1\1\GINC-CX3-7-2\FOpt\RB3LYP\TZVP\C16H18\RK820\01-Feb-2024\0\\# B3LYP/
 TZVP Opt\\Ground state calculation for DPB molecule, later to be used 
 for excited state and FC-HT analysis.\\0,1\C,-3.2712407629,1.120401398
 7,-0.0352519597\C,-2.2142295277,1.2804623958,-0.9257390238\C,-1.425924
 3924,2.4255821169,-0.8755537369\C,-1.6757933058,3.4319973942,0.0607908
 74\C,-2.7389109024,3.2559455159,0.950077364\C,-3.5306231433,2.11297859
 57,0.9046249632\H,-3.8842120024,0.2280570918,-0.0702258253\H,-1.999752
 0943,0.5105539801,-1.6574136778\H,-0.6000411555,2.5377991981,-1.569878
 3559\H,-2.9452439815,4.0209576669,1.6909862824\H,-4.3474011281,1.99525
 74168,1.6068518248\C,-0.843218646,4.6920447377,0.0864678968\H,-0.78014
 98887,5.066762574,1.1126088841\H,0.18028326,4.4593694558,-0.222840138\
 C,-1.3990799695,5.8047376705,-0.8193784271\H,-2.4247662472,6.036264810
 1,-0.5130899205\H,-1.465979178,5.4299155851,-1.8462562895\C,-0.5529241
 364,7.0786238245,-0.7902486868\H,-0.4859343943,7.4534064158,0.23663784
 75\H,0.4727347763,6.8470671758,-1.0966128855\C,-1.1088195848,8.1913348
 711,-1.696006469\H,-2.1322709225,8.4240871795,-1.386598307\H,-1.172039
 1082,7.8166284834,-2.7221495503\C,-0.2761632383,9.4513330488,-1.670458
 3454\C,-0.5258506797,10.4577788575,-0.7341044578\C,0.7868430095,9.6273
 088668,-2.5598992217\C,0.2625355522,11.6028542997,-0.6840384277\H,-1.3
 516480523,10.3456292814,-0.0396670034\C,1.5786291919,10.7702219289,-2.
 5145668986\H,0.9930212619,8.8622707049,-3.3008246718\C,1.3194375542,11
 .7628309141,-1.5746622702\H,0.0481953815,12.3727864703,0.0476514368\H,
 2.3953227816,10.8878898736,-3.2169008429\H,1.932474043,12.6551343498,-
 1.5397907511\\Version=ES64L-G16RevC.01\State=1-A\HF=-620.7622185\RMSD=
 7.089e-09\RMSF=2.172e-06\Dipole=-0.0000045,0.0000088,0.0000026\Quadrup
 ole=0.136975,-0.4231745,0.2861995,1.7078992,-4.3778269,3.7605471\PG=C0
 1 [X(C16H18)]\\@
 The archive entry for this job was punched.


 HERE WE GO......
 SLIDING DOWN THE RAZOR BLADE OF LIFE......
                                 TOM LEHRER
 Job cpu time:       0 days  5 hours  2 minutes 42.4 seconds.
 Elapsed time:       0 days  5 hours  8 minutes 45.8 seconds.
 File lengths (MBytes):  RWF=    110 Int=      0 D2E=      0 Chk=     24 Scr=      1
 Normal termination of Gaussian 16 at Thu Feb  1 16:42:43 2024.
