 Entering Gaussian System, Link 0=g16
 Input=DPB_gs_freq.gjf
 Output=DPB_gs_freq.log
 Initial command:
 /apps/gaussian/g16-c01-avx2/g16/l1.exe "/var/tmp/pbs.8844415.pbs/Gau-2694425.inp" -scrdir="/var/tmp/pbs.8844415.pbs/"
 Entering Link 1 = /apps/gaussian/g16-c01-avx2/g16/l1.exe PID=   2694426.
  
 Copyright (c) 1988-2019, Gaussian, Inc.  All Rights Reserved.
  
 This is part of the Gaussian(R) 16 program.  It is based on
 the Gaussian(R) 09 system (copyright 2009, Gaussian, Inc.),
 the Gaussian(R) 03 system (copyright 2003, Gaussian, Inc.),
 the Gaussian(R) 98 system (copyright 1998, Gaussian, Inc.),
 the Gaussian(R) 94 system (copyright 1995, Gaussian, Inc.),
 the Gaussian 92(TM) system (copyright 1992, Gaussian, Inc.),
 the Gaussian 90(TM) system (copyright 1990, Gaussian, Inc.),
 the Gaussian 88(TM) system (copyright 1988, Gaussian, Inc.),
 the Gaussian 86(TM) system (copyright 1986, Carnegie Mellon
 University), and the Gaussian 82(TM) system (copyright 1983,
 Carnegie Mellon University). Gaussian is a federally registered
 trademark of Gaussian, Inc.
  
 This software contains proprietary and confidential information,
 including trade secrets, belonging to Gaussian, Inc.
  
 This software is provided under written license and may be
 used, copied, transmitted, or stored only in accord with that
 written license.
  
 The following legend is applicable only to US Government
 contracts under FAR:
  
                    RESTRICTED RIGHTS LEGEND
  
 Use, reproduction and disclosure by the US Government is
 subject to restrictions as set forth in subparagraphs (a)
 and (c) of the Commercial Computer Software - Restricted
 Rights clause in FAR 52.227-19.
  
 Gaussian, Inc.
 340 Quinnipiac St., Bldg. 40, Wallingford CT 06492
  
  
 ---------------------------------------------------------------
 Warning -- This program may not be used in any manner that
 competes with the business of Gaussian, Inc. or will provide
 assistance to any competitor of Gaussian, Inc.  The licensee
 of this program is prohibited from giving any competitor of
 Gaussian, Inc. access to this program.  By using this program,
 the user acknowledges that Gaussian, Inc. is engaged in the
 business of creating and licensing software in the field of
 computational chemistry and represents and warrants to the
 licensee that it is not a competitor of Gaussian, Inc. and that
 it will not use this program in any manner prohibited above.
 ---------------------------------------------------------------
  

 Cite this work as:
 Gaussian 16, Revision C.01,
 M. J. Frisch, G. W. Trucks, H. B. Schlegel, G. E. Scuseria, 
 M. A. Robb, J. R. Cheeseman, G. Scalmani, V. Barone, 
 G. A. Petersson, H. Nakatsuji, X. Li, M. Caricato, A. V. Marenich, 
 J. Bloino, B. G. Janesko, R. Gomperts, B. Mennucci, H. P. Hratchian, 
 J. V. Ortiz, A. F. Izmaylov, J. L. Sonnenberg, D. Williams-Young, 
 F. Ding, F. Lipparini, F. Egidi, J. Goings, B. Peng, A. Petrone, 
 T. Henderson, D. Ranasinghe, V. G. Zakrzewski, J. Gao, N. Rega, 
 G. Zheng, W. Liang, M. Hada, M. Ehara, K. Toyota, R. Fukuda, 
 J. Hasegawa, M. Ishida, T. Nakajima, Y. Honda, O. Kitao, H. Nakai, 
 T. Vreven, K. Throssell, J. A. Montgomery, Jr., J. E. Peralta, 
 F. Ogliaro, M. J. Bearpark, J. J. Heyd, E. N. Brothers, K. N. Kudin, 
 V. N. Staroverov, T. A. Keith, R. Kobayashi, J. Normand, 
 K. Raghavachari, A. P. Rendell, J. C. Burant, S. S. Iyengar, 
 J. Tomasi, M. Cossi, J. M. Millam, M. Klene, C. Adamo, R. Cammi, 
 J. W. Ochterski, R. L. Martin, K. Morokuma, O. Farkas, 
 J. B. Foresman, and D. J. Fox, Gaussian, Inc., Wallingford CT, 2019.
 
 ******************************************
 Gaussian 16:  ES64L-G16RevC.01  3-Jul-2019
                 2-Feb-2024 
 ******************************************
 %oldchk=/rds/general/user/rk820/home/dibs-g16/fc_ht/exercise_8-7/DPB_gs_opt.chk
 %chk=/rds/general/user/rk820/home/dibs-g16/fc_ht/exercise_8-7/DPB_gs_freq.chk
 Copying data from "/rds/general/user/rk820/home/dibs-g16/fc_ht/exercise_8-7/DPB_gs_opt.chk" to current chk file "/rds/general/user/rk820/home/dibs-g16/fc_ht/exercise_8-7/DPB_gs_freq.chk"
 IOpt=  2 FromEx=T IUOpen= 4 IOptOp= 5 NList=   0 IFRang= 0 IUIn= 4 IUOut= 2.
 ----------------------------
 # B3LYP/TZVP Freq geom=check
 ----------------------------
 1/10=4,29=2,30=1,38=1/1,3;
 2/12=2,40=1/2;
 3/5=19,7=101,11=2,14=-4,25=1,30=1,71=2,74=-5,140=1/1,2,3;
 4//1;
 5/5=2,38=5,98=1/2;
 8/6=4,10=90,11=11/1;
 11/6=1,8=1,9=11,15=111,16=1/1,2,10;
 10/6=1/2;
 6/7=2,8=2,9=2,10=2,28=1/1;
 7/8=1,10=1,25=1/1,2,3,16;
 1/10=4,30=1/3;
 99//99;
 ----------------------------------------------------------------------
 Ground state calculation for DPB molecule, later to be used for excite
 d state and FC-HT analysis. Step two, frequency calculation,following 
 optimization.
 ----------------------------------------------------------------------
 Structure from the checkpoint file:  "/rds/general/user/rk820/home/dibs-g16/fc_ht/exercise_8-7/DPB_gs_freq.chk"
 Charge =  0 Multiplicity = 1
 Redundant internal coordinates found in file.  (old form).
 C,0,-3.2712407629,1.1204013987,-0.0352519597
 C,0,-2.2142295277,1.2804623958,-0.9257390238
 C,0,-1.4259243924,2.4255821169,-0.8755537369
 C,0,-1.6757933058,3.4319973942,0.060790874
 C,0,-2.7389109024,3.2559455159,0.950077364
 C,0,-3.5306231433,2.1129785957,0.9046249632
 H,0,-3.8842120024,0.2280570918,-0.0702258253
 H,0,-1.9997520943,0.5105539801,-1.6574136778
 H,0,-0.6000411555,2.5377991981,-1.5698783559
 H,0,-2.9452439815,4.0209576669,1.6909862824
 H,0,-4.3474011281,1.9952574168,1.6068518248
 C,0,-0.843218646,4.6920447377,0.0864678968
 H,0,-0.7801498887,5.066762574,1.1126088841
 H,0,0.18028326,4.4593694558,-0.222840138
 C,0,-1.3990799695,5.8047376705,-0.8193784271
 H,0,-2.4247662472,6.0362648101,-0.5130899205
 H,0,-1.465979178,5.4299155851,-1.8462562895
 C,0,-0.5529241364,7.0786238245,-0.7902486868
 H,0,-0.4859343943,7.4534064158,0.2366378475
 H,0,0.4727347763,6.8470671758,-1.0966128855
 C,0,-1.1088195848,8.1913348711,-1.696006469
 H,0,-2.1322709225,8.4240871795,-1.386598307
 H,0,-1.1720391082,7.8166284834,-2.7221495503
 C,0,-0.2761632383,9.4513330488,-1.6704583454
 C,0,-0.5258506797,10.4577788575,-0.7341044578
 C,0,0.7868430095,9.6273088668,-2.5598992217
 C,0,0.2625355522,11.6028542997,-0.6840384277
 H,0,-1.3516480523,10.3456292814,-0.0396670034
 C,0,1.5786291919,10.7702219289,-2.5145668986
 H,0,0.9930212619,8.8622707049,-3.3008246718
 C,0,1.3194375542,11.7628309141,-1.5746622702
 H,0,0.0481953815,12.3727864703,0.0476514368
 H,0,2.3953227816,10.8878898736,-3.2169008429
 H,0,1.932474043,12.6551343498,-1.5397907511
 Recover connectivity data from disk.

 GradGradGradGradGradGradGradGradGradGradGradGradGradGradGradGradGradGrad
 Berny optimization.
 Initialization pass.
                           ----------------------------
                           !    Initial Parameters    !
                           ! (Angstroms and Degrees)  !
 --------------------------                            --------------------------
 ! Name  Definition              Value          Derivative Info.                !
 --------------------------------------------------------------------------------
 ! R1    R(1,2)                  1.3914         calculate D2E/DX2 analytically  !
 ! R2    R(1,6)                  1.3914         calculate D2E/DX2 analytically  !
 ! R3    R(1,7)                  1.0832         calculate D2E/DX2 analytically  !
 ! R4    R(2,3)                  1.3911         calculate D2E/DX2 analytically  !
 ! R5    R(2,8)                  1.0836         calculate D2E/DX2 analytically  !
 ! R6    R(3,4)                  1.3972         calculate D2E/DX2 analytically  !
 ! R7    R(3,9)                  1.0848         calculate D2E/DX2 analytically  !
 ! R8    R(4,5)                  1.3972         calculate D2E/DX2 analytically  !
 ! R9    R(4,12)                 1.5105         calculate D2E/DX2 analytically  !
 ! R10   R(5,6)                  1.3911         calculate D2E/DX2 analytically  !
 ! R11   R(5,10)                 1.0848         calculate D2E/DX2 analytically  !
 ! R12   R(6,11)                 1.0836         calculate D2E/DX2 analytically  !
 ! R13   R(12,13)                1.0942         calculate D2E/DX2 analytically  !
 ! R14   R(12,14)                1.0942         calculate D2E/DX2 analytically  !
 ! R15   R(12,15)                1.5387         calculate D2E/DX2 analytically  !
 ! R16   R(15,16)                1.0952         calculate D2E/DX2 analytically  !
 ! R17   R(15,17)                1.0952         calculate D2E/DX2 analytically  !
 ! R18   R(15,18)                1.5296         calculate D2E/DX2 analytically  !
 ! R19   R(18,19)                1.0952         calculate D2E/DX2 analytically  !
 ! R20   R(18,20)                1.0952         calculate D2E/DX2 analytically  !
 ! R21   R(18,21)                1.5387         calculate D2E/DX2 analytically  !
 ! R22   R(21,22)                1.0942         calculate D2E/DX2 analytically  !
 ! R23   R(21,23)                1.0942         calculate D2E/DX2 analytically  !
 ! R24   R(21,24)                1.5105         calculate D2E/DX2 analytically  !
 ! R25   R(24,25)                1.3972         calculate D2E/DX2 analytically  !
 ! R26   R(24,26)                1.3972         calculate D2E/DX2 analytically  !
 ! R27   R(25,27)                1.3911         calculate D2E/DX2 analytically  !
 ! R28   R(25,28)                1.0848         calculate D2E/DX2 analytically  !
 ! R29   R(26,29)                1.3911         calculate D2E/DX2 analytically  !
 ! R30   R(26,30)                1.0848         calculate D2E/DX2 analytically  !
 ! R31   R(27,31)                1.3913         calculate D2E/DX2 analytically  !
 ! R32   R(27,32)                1.0836         calculate D2E/DX2 analytically  !
 ! R33   R(29,31)                1.3914         calculate D2E/DX2 analytically  !
 ! R34   R(29,33)                1.0836         calculate D2E/DX2 analytically  !
 ! R35   R(31,34)                1.0832         calculate D2E/DX2 analytically  !
 ! A1    A(2,1,6)              119.4654         calculate D2E/DX2 analytically  !
 ! A2    A(2,1,7)              120.2671         calculate D2E/DX2 analytically  !
 ! A3    A(6,1,7)              120.2668         calculate D2E/DX2 analytically  !
 ! A4    A(1,2,3)              120.1393         calculate D2E/DX2 analytically  !
 ! A5    A(1,2,8)              120.0532         calculate D2E/DX2 analytically  !
 ! A6    A(3,2,8)              119.8068         calculate D2E/DX2 analytically  !
 ! A7    A(2,3,4)              121.0496         calculate D2E/DX2 analytically  !
 ! A8    A(2,3,9)              119.5698         calculate D2E/DX2 analytically  !
 ! A9    A(4,3,9)              119.3796         calculate D2E/DX2 analytically  !
 ! A10   A(3,4,5)              118.1566         calculate D2E/DX2 analytically  !
 ! A11   A(3,4,12)             120.9117         calculate D2E/DX2 analytically  !
 ! A12   A(5,4,12)             120.9113         calculate D2E/DX2 analytically  !
 ! A13   A(4,5,6)              121.0496         calculate D2E/DX2 analytically  !
 ! A14   A(4,5,10)             119.3797         calculate D2E/DX2 analytically  !
 ! A15   A(6,5,10)             119.5696         calculate D2E/DX2 analytically  !
 ! A16   A(1,6,5)              120.1392         calculate D2E/DX2 analytically  !
 ! A17   A(1,6,11)             120.0531         calculate D2E/DX2 analytically  !
 ! A18   A(5,6,11)             119.807          calculate D2E/DX2 analytically  !
 ! A19   A(4,12,13)            109.4741         calculate D2E/DX2 analytically  !
 ! A20   A(4,12,14)            109.4739         calculate D2E/DX2 analytically  !
 ! A21   A(4,12,15)            113.2105         calculate D2E/DX2 analytically  !
 ! A22   A(13,12,14)           106.4981         calculate D2E/DX2 analytically  !
 ! A23   A(13,12,15)           108.9811         calculate D2E/DX2 analytically  !
 ! A24   A(14,12,15)           108.9809         calculate D2E/DX2 analytically  !
 ! A25   A(12,15,16)           109.0599         calculate D2E/DX2 analytically  !
 ! A26   A(12,15,17)           109.0603         calculate D2E/DX2 analytically  !
 ! A27   A(12,15,18)           113.029          calculate D2E/DX2 analytically  !
 ! A28   A(16,15,17)           106.103          calculate D2E/DX2 analytically  !
 ! A29   A(16,15,18)           109.6757         calculate D2E/DX2 analytically  !
 ! A30   A(17,15,18)           109.6747         calculate D2E/DX2 analytically  !
 ! A31   A(15,18,19)           109.6757         calculate D2E/DX2 analytically  !
 ! A32   A(15,18,20)           109.6734         calculate D2E/DX2 analytically  !
 ! A33   A(15,18,21)           113.0293         calculate D2E/DX2 analytically  !
 ! A34   A(19,18,20)           106.1025         calculate D2E/DX2 analytically  !
 ! A35   A(19,18,21)           109.0609         calculate D2E/DX2 analytically  !
 ! A36   A(20,18,21)           109.0608         calculate D2E/DX2 analytically  !
 ! A37   A(18,21,22)           108.9825         calculate D2E/DX2 analytically  !
 ! A38   A(18,21,23)           108.9814         calculate D2E/DX2 analytically  !
 ! A39   A(18,21,24)           113.2113         calculate D2E/DX2 analytically  !
 ! A40   A(22,21,23)           106.4969         calculate D2E/DX2 analytically  !
 ! A41   A(22,21,24)           109.4737         calculate D2E/DX2 analytically  !
 ! A42   A(23,21,24)           109.4727         calculate D2E/DX2 analytically  !
 ! A43   A(21,24,25)           120.9118         calculate D2E/DX2 analytically  !
 ! A44   A(21,24,26)           120.9112         calculate D2E/DX2 analytically  !
 ! A45   A(25,24,26)           118.1567         calculate D2E/DX2 analytically  !
 ! A46   A(24,25,27)           121.0496         calculate D2E/DX2 analytically  !
 ! A47   A(24,25,28)           119.38           calculate D2E/DX2 analytically  !
 ! A48   A(27,25,28)           119.5694         calculate D2E/DX2 analytically  !
 ! A49   A(24,26,29)           121.0495         calculate D2E/DX2 analytically  !
 ! A50   A(24,26,30)           119.3794         calculate D2E/DX2 analytically  !
 ! A51   A(29,26,30)           119.5701         calculate D2E/DX2 analytically  !
 ! A52   A(25,27,31)           120.1391         calculate D2E/DX2 analytically  !
 ! A53   A(25,27,32)           119.8066         calculate D2E/DX2 analytically  !
 ! A54   A(31,27,32)           120.0536         calculate D2E/DX2 analytically  !
 ! A55   A(26,29,31)           120.1393         calculate D2E/DX2 analytically  !
 ! A56   A(26,29,33)           119.8074         calculate D2E/DX2 analytically  !
 ! A57   A(31,29,33)           120.0526         calculate D2E/DX2 analytically  !
 ! A58   A(27,31,29)           119.4655         calculate D2E/DX2 analytically  !
 ! A59   A(27,31,34)           120.2675         calculate D2E/DX2 analytically  !
 ! A60   A(29,31,34)           120.2664         calculate D2E/DX2 analytically  !
 ! D1    D(6,1,2,3)             -0.086          calculate D2E/DX2 analytically  !
 ! D2    D(6,1,2,8)            179.6065         calculate D2E/DX2 analytically  !
 ! D3    D(7,1,2,3)           -179.7863         calculate D2E/DX2 analytically  !
 ! D4    D(7,1,2,8)             -0.0938         calculate D2E/DX2 analytically  !
 ! D5    D(2,1,6,5)              0.0859         calculate D2E/DX2 analytically  !
 ! D6    D(2,1,6,11)          -179.6063         calculate D2E/DX2 analytically  !
 ! D7    D(7,1,6,5)            179.7862         calculate D2E/DX2 analytically  !
 ! D8    D(7,1,6,11)             0.094          calculate D2E/DX2 analytically  !
 ! D9    D(1,2,3,4)             -0.0417         calculate D2E/DX2 analytically  !
 ! D10   D(1,2,3,9)            179.5912         calculate D2E/DX2 analytically  !
 ! D11   D(8,2,3,4)           -179.735          calculate D2E/DX2 analytically  !
 ! D12   D(8,2,3,9)             -0.1021         calculate D2E/DX2 analytically  !
 ! D13   D(2,3,4,5)              0.1655         calculate D2E/DX2 analytically  !
 ! D14   D(2,3,4,12)          -178.2076         calculate D2E/DX2 analytically  !
 ! D15   D(9,3,4,5)           -179.4681         calculate D2E/DX2 analytically  !
 ! D16   D(9,3,4,12)             2.1588         calculate D2E/DX2 analytically  !
 ! D17   D(3,4,5,6)             -0.1656         calculate D2E/DX2 analytically  !
 ! D18   D(3,4,5,10)           179.4681         calculate D2E/DX2 analytically  !
 ! D19   D(12,4,5,6)           178.2075         calculate D2E/DX2 analytically  !
 ! D20   D(12,4,5,10)           -2.1588         calculate D2E/DX2 analytically  !
 ! D21   D(3,4,12,13)         -149.0319         calculate D2E/DX2 analytically  !
 ! D22   D(3,4,12,14)          -32.6386         calculate D2E/DX2 analytically  !
 ! D23   D(3,4,12,15)           89.1646         calculate D2E/DX2 analytically  !
 ! D24   D(5,4,12,13)           32.64           calculate D2E/DX2 analytically  !
 ! D25   D(5,4,12,14)          149.0332         calculate D2E/DX2 analytically  !
 ! D26   D(5,4,12,15)          -89.1635         calculate D2E/DX2 analytically  !
 ! D27   D(4,5,6,1)              0.0419         calculate D2E/DX2 analytically  !
 ! D28   D(4,5,6,11)           179.7348         calculate D2E/DX2 analytically  !
 ! D29   D(10,5,6,1)          -179.5912         calculate D2E/DX2 analytically  !
 ! D30   D(10,5,6,11)            0.1018         calculate D2E/DX2 analytically  !
 ! D31   D(4,12,15,16)          57.729          calculate D2E/DX2 analytically  !
 ! D32   D(4,12,15,17)         -57.7287         calculate D2E/DX2 analytically  !
 ! D33   D(4,12,15,18)        -179.9994         calculate D2E/DX2 analytically  !
 ! D34   D(13,12,15,16)        -64.3503         calculate D2E/DX2 analytically  !
 ! D35   D(13,12,15,17)       -179.808          calculate D2E/DX2 analytically  !
 ! D36   D(13,12,15,18)         57.9213         calculate D2E/DX2 analytically  !
 ! D37   D(14,12,15,16)        179.808          calculate D2E/DX2 analytically  !
 ! D38   D(14,12,15,17)         64.3503         calculate D2E/DX2 analytically  !
 ! D39   D(14,12,15,18)        -57.9204         calculate D2E/DX2 analytically  !
 ! D40   D(12,15,18,19)        -58.0683         calculate D2E/DX2 analytically  !
 ! D41   D(12,15,18,20)         58.0776         calculate D2E/DX2 analytically  !
 ! D42   D(12,15,18,21)       -179.9963         calculate D2E/DX2 analytically  !
 ! D43   D(16,15,18,19)         63.8582         calculate D2E/DX2 analytically  !
 ! D44   D(16,15,18,20)       -179.9959         calculate D2E/DX2 analytically  !
 ! D45   D(16,15,18,21)        -58.0698         calculate D2E/DX2 analytically  !
 ! D46   D(17,15,18,19)       -179.9946         calculate D2E/DX2 analytically  !
 ! D47   D(17,15,18,20)        -63.8487         calculate D2E/DX2 analytically  !
 ! D48   D(17,15,18,21)         58.0774         calculate D2E/DX2 analytically  !
 ! D49   D(15,18,21,22)         57.9256         calculate D2E/DX2 analytically  !
 ! D50   D(15,18,21,23)        -57.9158         calculate D2E/DX2 analytically  !
 ! D51   D(15,18,21,24)       -179.994          calculate D2E/DX2 analytically  !
 ! D52   D(19,18,21,22)        -64.3469         calculate D2E/DX2 analytically  !
 ! D53   D(19,18,21,23)        179.8117         calculate D2E/DX2 analytically  !
 ! D54   D(19,18,21,24)         57.7335         calculate D2E/DX2 analytically  !
 ! D55   D(20,18,21,22)       -179.8049         calculate D2E/DX2 analytically  !
 ! D56   D(20,18,21,23)         64.3537         calculate D2E/DX2 analytically  !
 ! D57   D(20,18,21,24)        -57.7245         calculate D2E/DX2 analytically  !
 ! D58   D(18,21,24,25)        -89.1656         calculate D2E/DX2 analytically  !
 ! D59   D(18,21,24,26)         89.1635         calculate D2E/DX2 analytically  !
 ! D60   D(22,21,24,25)         32.64           calculate D2E/DX2 analytically  !
 ! D61   D(22,21,24,26)       -149.0309         calculate D2E/DX2 analytically  !
 ! D62   D(23,21,24,25)        149.031          calculate D2E/DX2 analytically  !
 ! D63   D(23,21,24,26)        -32.6399         calculate D2E/DX2 analytically  !
 ! D64   D(21,24,25,27)        178.2074         calculate D2E/DX2 analytically  !
 ! D65   D(21,24,25,28)         -2.1585         calculate D2E/DX2 analytically  !
 ! D66   D(26,24,25,27)         -0.1666         calculate D2E/DX2 analytically  !
 ! D67   D(26,24,25,28)        179.4675         calculate D2E/DX2 analytically  !
 ! D68   D(21,24,26,29)       -178.2073         calculate D2E/DX2 analytically  !
 ! D69   D(21,24,26,30)          2.1586         calculate D2E/DX2 analytically  !
 ! D70   D(25,24,26,29)          0.1667         calculate D2E/DX2 analytically  !
 ! D71   D(25,24,26,30)       -179.4674         calculate D2E/DX2 analytically  !
 ! D72   D(24,25,27,31)          0.0419         calculate D2E/DX2 analytically  !
 ! D73   D(24,25,27,32)        179.7351         calculate D2E/DX2 analytically  !
 ! D74   D(28,25,27,31)       -179.5914         calculate D2E/DX2 analytically  !
 ! D75   D(28,25,27,32)          0.1017         calculate D2E/DX2 analytically  !
 ! D76   D(24,26,29,31)         -0.0421         calculate D2E/DX2 analytically  !
 ! D77   D(24,26,29,33)       -179.7353         calculate D2E/DX2 analytically  !
 ! D78   D(30,26,29,31)        179.5912         calculate D2E/DX2 analytically  !
 ! D79   D(30,26,29,33)         -0.102          calculate D2E/DX2 analytically  !
 ! D80   D(25,27,31,29)          0.0865         calculate D2E/DX2 analytically  !
 ! D81   D(25,27,31,34)        179.7862         calculate D2E/DX2 analytically  !
 ! D82   D(32,27,31,29)       -179.6059         calculate D2E/DX2 analytically  !
 ! D83   D(32,27,31,34)          0.0938         calculate D2E/DX2 analytically  !
 ! D84   D(26,29,31,27)         -0.0864         calculate D2E/DX2 analytically  !
 ! D85   D(26,29,31,34)       -179.7861         calculate D2E/DX2 analytically  !
 ! D86   D(33,29,31,27)        179.606          calculate D2E/DX2 analytically  !
 ! D87   D(33,29,31,34)         -0.0937         calculate D2E/DX2 analytically  !
 --------------------------------------------------------------------------------
 Trust Radius=3.00D-01 FncErr=1.00D-07 GrdErr=1.00D-07 EigMax=2.50D+02 EigMin=1.00D-04
 Number of steps in this run=      2 maximum allowed number of steps=      2.
 GradGradGradGradGradGradGradGradGradGradGradGradGradGradGradGradGradGrad

                          Input orientation:                          
 ---------------------------------------------------------------------
 Center     Atomic      Atomic             Coordinates (Angstroms)
 Number     Number       Type             X           Y           Z
 ---------------------------------------------------------------------
      1          6           0       -3.271241    1.120401   -0.035252
      2          6           0       -2.214230    1.280462   -0.925739
      3          6           0       -1.425924    2.425582   -0.875554
      4          6           0       -1.675793    3.431997    0.060791
      5          6           0       -2.738911    3.255946    0.950077
      6          6           0       -3.530623    2.112979    0.904625
      7          1           0       -3.884212    0.228057   -0.070226
      8          1           0       -1.999752    0.510554   -1.657414
      9          1           0       -0.600041    2.537799   -1.569878
     10          1           0       -2.945244    4.020958    1.690986
     11          1           0       -4.347401    1.995257    1.606852
     12          6           0       -0.843219    4.692045    0.086468
     13          1           0       -0.780150    5.066763    1.112609
     14          1           0        0.180283    4.459369   -0.222840
     15          6           0       -1.399080    5.804738   -0.819378
     16          1           0       -2.424766    6.036265   -0.513090
     17          1           0       -1.465979    5.429916   -1.846256
     18          6           0       -0.552924    7.078624   -0.790249
     19          1           0       -0.485934    7.453406    0.236638
     20          1           0        0.472735    6.847067   -1.096613
     21          6           0       -1.108820    8.191335   -1.696006
     22          1           0       -2.132271    8.424087   -1.386598
     23          1           0       -1.172039    7.816628   -2.722150
     24          6           0       -0.276163    9.451333   -1.670458
     25          6           0       -0.525851   10.457779   -0.734104
     26          6           0        0.786843    9.627309   -2.559899
     27          6           0        0.262536   11.602854   -0.684038
     28          1           0       -1.351648   10.345629   -0.039667
     29          6           0        1.578629   10.770222   -2.514567
     30          1           0        0.993021    8.862271   -3.300825
     31          6           0        1.319438   11.762831   -1.574662
     32          1           0        0.048195   12.372786    0.047651
     33          1           0        2.395323   10.887890   -3.216901
     34          1           0        1.932474   12.655134   -1.539791
 ---------------------------------------------------------------------
                    Distance matrix (angstroms):
                    1          2          3          4          5
     1  C    0.000000
     2  C    1.391352   0.000000
     3  C    2.411389   1.391130   0.000000
     4  C    2.810365   2.427397   1.397157   0.000000
     5  C    2.411389   2.774259   2.397158   1.397156   0.000000
     6  C    1.391351   2.403374   2.774259   2.427398   1.391132
     7  H    1.083160   2.151349   3.394237   3.893522   3.394237
     8  H    2.149420   1.083562   2.146606   3.404704   3.857790
     9  H    3.391077   2.145091   1.084787   2.148468   3.382407
    10  H    3.391076   3.859009   3.382408   2.148468   1.084787
    11  H    2.149418   3.387531   3.857790   3.404705   2.146608
    12  C    4.320503   3.813545   2.530195   1.510483   2.530188
    13  H    4.805922   4.532937   3.368330   2.140317   2.672493
    14  H    4.805925   4.041436   2.672495   2.140318   3.368332
    15  C    5.105178   4.598353   3.379729   2.545813   3.379713
    16  H    5.011044   4.778312   3.763787   2.769929   3.157486
    17  H    5.011050   4.315691   3.157513   2.769933   3.763772
    18  C    6.592396   6.032990   4.734998   3.909346   4.734991
    19  H    6.923786   6.514857   5.234460   4.197430   4.817009
    20  H    6.923766   6.183532   4.816981   4.197435   5.234478
    21  C    7.578408   7.040980   5.832461   5.104810   5.832412
    22  H    7.514467   7.158944   6.061531   5.217688   5.704187
    23  H    7.514354   6.858186   5.704187   5.217616   6.061367
    24  C    9.002711   8.430530   7.163449   6.417834   7.163460
    25  C    9.757673   9.333300   8.083707   7.163507   7.720136
    26  C    9.757528   9.019244   7.719989   7.163412   8.083635
    27  C   11.081079  10.618124   9.333268   8.430587   9.019418
    28  H    9.422828   9.149121   7.964381   6.921955   7.291619
    29  C   11.080942  10.342422   9.019242   8.430497   9.333234
    30  H    9.422549   8.568040   7.291378   6.921770   7.964193
    31  C   11.692109  11.080973   9.757560   9.002716   9.757643
    32  H   11.732080  11.362469  10.098129   9.105494   9.575966
    33  H   11.731865  10.899544   9.575724   9.105360  10.098051
    34  H   12.743326  12.122515  10.787205  10.032333  10.787309
                    6          7          8          9         10
     6  C    0.000000
     7  H    2.151346   0.000000
     8  H    3.387532   2.479951   0.000000
     9  H    3.859009   4.285982   2.465071   0.000000
    10  H    2.145091   4.285980   4.942537   4.281702   0.000000
    11  H    1.083562   2.479946   4.286167   4.942537   2.465073
    12  C    3.813542   5.403645   4.675848   2.728258   2.728250
    13  H    4.041435   5.869188   5.469871   3.691048   2.473027
    14  H    4.532941   5.869192   4.733255   2.473025   3.691051
    15  C    4.598342   6.151136   5.393653   3.445954   3.445929
    16  H    4.315670   6.005113   5.658939   4.084812   3.031553
    17  H    4.778302   6.005120   4.951837   3.031595   4.084785
    18  C    6.032986   7.651547   6.781211   4.607508   4.607499
    19  H    6.183567   7.990502   7.354065   5.238293   4.465987
    20  H    6.514862   7.990479   6.824887   4.465940   5.238338
    21  C    7.040940   8.588350   7.732376   5.677784   5.677695
    22  H    6.858220   8.483929   7.919275   6.085204   5.433231
    23  H    7.158773   8.483808   7.429502   5.433318   6.084993
    24  C    8.430540  10.032327   9.105408   6.921847   6.921870
    25  C    9.019411  10.787332  10.098127   7.964302   7.291584
    26  C    9.333199  10.787176   9.575741   7.291415   7.964275
    27  C   10.342613  12.122636  11.362417   9.148988   8.568299
    28  H    8.568323  10.429769   9.988286   7.991788   6.748050
    29  C   10.618060  12.122486  10.899556   8.568070   9.149026
    30  H    9.148886  10.429469   9.022675   6.747812   7.991647
    31  C   11.081047  12.743324  11.731905   9.422613   9.422769
    32  H   10.899817  12.766056  12.157874   9.988172   9.022986
    33  H   11.362345  12.765820  11.377073   9.022688   9.988181
    34  H   12.122609  13.799482  12.765856  10.429526  10.429720
                   11         12         13         14         15
    11  H    0.000000
    12  C    4.675845   0.000000
    13  H    4.733255   1.094238   0.000000
    14  H    5.469876   1.094242   1.753506   0.000000
    15  C    5.393638   1.538709   2.158763   2.158764   0.000000
    16  H    4.951810   2.160484   2.507508   3.058942   1.095194
    17  H    5.658924   2.160488   3.058942   2.507513   1.095192
    18  C    6.781206   2.559035   2.778504   2.778496   1.529580
    19  H    6.824940   2.788426   2.559288   3.101487   2.160350
    20  H    7.354080   2.788465   3.101591   2.559318   2.160324
    21  C    7.732313   3.936088   4.214178   4.214211   2.559018
    22  H    7.429495   4.214228   4.398397   4.735106   2.778543
    23  H    7.919062   4.214200   4.735051   4.398467   2.778451
    24  C    9.105427   5.104818   5.217655   5.217628   3.909340
    25  C    9.575938   5.832474   5.704216   6.061430   4.735039
    26  C   10.098044   5.832426   6.061466   5.704153   4.734947
    27  C   10.899799   7.040999   6.858253   7.158830   6.033029
    28  H    9.022986   5.677801   5.433303   6.085098   4.607591
    29  C   11.362391   7.040949   7.158889   6.858151   6.032947
    30  H    9.988056   5.677703   6.085098   5.433238   4.607411
    31  C   11.732032   7.578420   7.514454   7.514363   6.592395
    32  H   11.377411   7.732394   7.429554   7.919140   6.781269
    33  H   12.157789   7.732328   7.919205   7.429446   6.781153
    34  H   12.766016   8.588363   8.483922   8.483814   7.651548
                   16         17         18         19         20
    16  H    0.000000
    17  H    1.750504   0.000000
    18  C    2.160352   2.160338   0.000000
    19  H    2.515840   3.064874   1.095192   0.000000
    20  H    3.064867   2.515730   1.095196   1.750500   0.000000
    21  C    2.788429   2.788472   1.538682   2.160472   2.160473
    22  H    2.559349   3.101660   2.158759   2.507497   3.058944
    23  H    3.101446   2.559294   2.158749   3.058937   2.507529
    24  C    4.197462   4.197424   2.545803   2.769969   2.769900
    25  C    4.817106   5.234514   3.379730   3.157560   3.763751
    26  C    5.234449   4.816908   3.379709   3.763832   3.157470
    27  C    6.183667   6.514882   4.598360   4.315758   4.778275
    28  H    4.466132   5.238423   3.445962   3.031626   4.084782
    29  C    6.514863   6.183458   4.598336   4.778370   4.315639
    30  H    5.238229   4.465816   3.445916   4.084832   3.031550
    31  C    6.923840   6.923736   5.105178   5.011119   5.011005
    32  H    6.825062   7.354119   5.393661   4.951900   5.658900
    33  H    7.354054   6.824793   5.393636   5.658997   4.951789
    34  H    7.990563   7.990444   6.151137   6.005195   6.005072
                   21         22         23         24         25
    21  C    0.000000
    22  H    1.094239   0.000000
    23  H    1.094245   1.753496   0.000000
    24  C    1.510485   2.140315   2.140305   0.000000
    25  C    2.530193   2.672496   3.368317   1.397153   0.000000
    26  C    2.530191   3.368324   2.672472   1.397160   2.397159
    27  C    3.813549   4.041441   4.532925   2.427399   1.391135
    28  H    2.728261   2.473039   3.691046   2.148468   1.084787
    29  C    3.813539   4.532929   4.041408   2.427394   2.774257
    30  H    2.728247   3.691032   2.472998   2.148469   3.382406
    31  C    4.320502   4.805920   4.805902   2.810363   2.411387
    32  H    4.675849   4.733258   5.469858   3.404703   2.146608
    33  H    4.675847   5.469866   4.733233   3.404705   3.857788
    34  H    5.403645   5.869189   5.869166   3.893520   3.394240
                   26         27         28         29         30
    26  C    0.000000
    27  C    2.774262   0.000000
    28  H    3.382410   2.145092   0.000000
    29  C    1.391126   2.403375   3.859007   0.000000
    30  H    1.084787   3.859013   4.281702   2.145091   0.000000
    31  C    2.411390   1.391347   3.391072   1.391357   3.391082
    32  H    3.857793   1.083562   2.465066   3.387537   4.942541
    33  H    2.146607   3.387528   4.942535   1.083562   2.465081
    34  H    3.394233   2.151348   4.285982   2.151346   4.285980
                   31         32         33         34
    31  C    0.000000
    32  H    2.149420   0.000000
    33  H    2.149418   4.286167   0.000000
    34  H    1.083160   2.479959   2.479936   0.000000
 Stoichiometry    C16H18
 Framework group  C1[X(C16H18)]
 Deg. of freedom    96
 Full point group                 C1      NOp   1
 Largest Abelian subgroup         C1      NOp   1
 Largest concise Abelian subgroup C1      NOp   1
                         Standard orientation:                         
 ---------------------------------------------------------------------
 Center     Atomic      Atomic             Coordinates (Angstroms)
 Number     Number       Type             X           Y           Z
 ---------------------------------------------------------------------
      1          6           0        5.830863    0.000085   -0.421170
      2          6           0        5.167620    1.201746   -0.193181
      3          6           0        3.851430    1.198586    0.257236
      4          6           0        3.171604   -0.000020    0.487947
      5          6           0        3.851479   -1.198571    0.257108
      6          6           0        5.167671   -1.201628   -0.193312
      7          1           0        6.856800    0.000123   -0.768572
      8          1           0        5.677073    2.143163   -0.361406
      9          1           0        3.345340    2.140838    0.438340
     10          1           0        3.345431   -2.140865    0.438109
     11          1           0        5.677165   -2.143004   -0.361637
     12          6           0        1.729878   -0.000080    0.938486
     13          1           0        1.543877   -0.876863    1.566189
     14          1           0        1.543830    0.876643    1.566267
     15          6           0        0.729249   -0.000053   -0.230431
     16          1           0        0.916563   -0.875274   -0.861582
     17          1           0        0.916512    0.875230   -0.861508
     18          6           0       -0.729251   -0.000099    0.230428
     19          1           0       -0.916507   -0.875325    0.861585
     20          1           0       -0.916542    0.875176    0.861515
     21          6           0       -1.729870   -0.000164   -0.938463
     22          1           0       -1.543892   -0.876962   -1.566156
     23          1           0       -1.543828    0.876534   -1.566284
     24          6           0       -3.171601   -0.000064   -0.487934
     25          6           0       -3.851515   -1.198589   -0.257083
     26          6           0       -3.851396    1.198570   -0.257264
     27          6           0       -5.167713   -1.201598    0.193328
     28          1           0       -3.345496   -2.140902   -0.438062
     29          6           0       -5.167584    1.201777    0.193146
     30          1           0       -3.345273    2.140800   -0.438390
     31          6           0       -5.830865    0.000137    0.421162
     32          1           0       -5.677231   -2.142959    0.361664
     33          1           0       -5.677019    2.143207    0.361348
     34          1           0       -6.856804    0.000226    0.768557
 ---------------------------------------------------------------------
 Rotational constants (GHZ):           2.1582567           0.1455860           0.1403799
 Standard basis: TZVP (5D, 7F)
 There are   428 symmetry adapted cartesian basis functions of A   symmetry.
 There are   412 symmetry adapted basis functions of A   symmetry.
   412 basis functions,   704 primitive gaussians,   428 cartesian basis functions
    57 alpha electrons       57 beta electrons
       nuclear repulsion energy       931.7628134153 Hartrees.
 NAtoms=   34 NActive=   34 NUniq=   34 SFac= 1.00D+00 NAtFMM=   60 NAOKFM=F Big=F
 Integral buffers will be    131072 words long.
 Raffenetti 2 integral format.
 Two-electron integral symmetry is turned on.
 One-electron integrals computed using PRISM.
 NBasis=   412 RedAO= T EigKep=  8.96D-06  NBF=   412
 NBsUse=   412 1.00D-06 EigRej= -1.00D+00 NBFU=   412
 ExpMin= 9.52D-02 ExpMax= 1.36D+04 ExpMxC= 4.63D+02 IAcc=3 IRadAn=         5 AccDes= 0.00D+00
 Harris functional with IExCor=  402 and IRadAn=       5 diagonalized for initial guess.
 HarFok:  IExCor=  402 AccDes= 0.00D+00 IRadAn=         5 IDoV= 1 UseB2=F ITyADJ=14
 ICtDFT=  3500011 ScaDFX=  1.000000  1.000000  1.000000  1.000000
 FoFCou: FMM=F IPFlag=           0 FMFlag=      100000 FMFlg1=           0
         NFxFlg=           0 DoJE=T BraDBF=F KetDBF=T FulRan=T
         wScrn=  0.000000 ICntrl=       500 IOpCl=  0 I1Cent=   200000004 NGrid=           0
         NMat0=    1 NMatS0=      1 NMatT0=    0 NMatD0=    1 NMtDS0=    0 NMtDT0=    0
 Petite list used in FoFCou.
 Requested convergence on RMS density matrix=1.00D-08 within 128 cycles.
 Requested convergence on MAX density matrix=1.00D-06.
 Requested convergence on             energy=1.00D-06.
 No special actions if energy rises.
 Integral accuracy reduced to 1.0D-05 until final iterations.
 Problem detected with inexpensive integrals.
 Switching to full accuracy and repeating last cycle.
 SCF Done:  E(RB3LYP) =  -620.762218470     A.U. after   19 cycles
            NFock= 19  Conv=0.16D-08     -V/T= 2.0053
 DoSCS=F DFT=T ScalE2(SS,OS)=  1.000000  1.000000
 Range of M.O.s used for correlation:     1   412
 NBasis=   412 NAE=    57 NBE=    57 NFC=     0 NFV=     0
 NROrb=    412 NOA=    57 NOB=    57 NVA=   355 NVB=   355

 **** Warning!!: The largest alpha MO coefficient is  0.59171742D+02

 Symmetrizing basis deriv contribution to polar:
 IMax=3 JMax=2 DiffMx= 0.00D+00
 G2DrvN: will do    35 centers at a time, making    1 passes.
 Calling FoFCou, ICntrl=  3107 FMM=F I1Cent=   0 AccDes= 0.00D+00.
 End of G2Drv F.D. properties file   721 does not exist.
 End of G2Drv F.D. properties file   722 does not exist.
 End of G2Drv F.D. properties file   788 does not exist.
          IDoAtm=1111111111111111111111111111111111
          Differentiating once with respect to electric field.
                with respect to dipole field.
          Differentiating once with respect to nuclear coordinates.
 CalDSu exits because no D1Ps are significant.
          There are   105 degrees of freedom in the 1st order CPHF.  IDoFFX=6 NUNeed=     3.
    102 vectors produced by pass  0 Test12= 2.02D-14 1.00D-09 XBig12= 2.26D+02 7.35D+00.
 AX will form   102 AO Fock derivatives at one time.
    102 vectors produced by pass  1 Test12= 2.02D-14 1.00D-09 XBig12= 4.39D+01 1.15D+00.
    102 vectors produced by pass  2 Test12= 2.02D-14 1.00D-09 XBig12= 3.55D-01 8.50D-02.
    102 vectors produced by pass  3 Test12= 2.02D-14 1.00D-09 XBig12= 1.26D-03 2.98D-03.
    102 vectors produced by pass  4 Test12= 2.02D-14 1.00D-09 XBig12= 2.36D-06 1.93D-04.
     87 vectors produced by pass  5 Test12= 2.02D-14 1.00D-09 XBig12= 3.03D-09 4.69D-06.
     11 vectors produced by pass  6 Test12= 2.02D-14 1.00D-09 XBig12= 3.65D-12 1.79D-07.
      3 vectors produced by pass  7 Test12= 2.02D-14 1.00D-09 XBig12= 6.97D-15 1.25D-08.
      3 vectors produced by pass  8 Test12= 2.02D-14 1.00D-09 XBig12= 4.65D-15 1.48D-08.
      3 vectors produced by pass  9 Test12= 2.02D-14 1.00D-09 XBig12= 9.55D-15 2.29D-08.
      3 vectors produced by pass 10 Test12= 2.02D-14 1.00D-09 XBig12= 1.83D-14 2.60D-08.
      3 vectors produced by pass 11 Test12= 2.02D-14 1.00D-09 XBig12= 1.33D-14 1.95D-08.
      3 vectors produced by pass 12 Test12= 2.02D-14 1.00D-09 XBig12= 8.93D-15 2.02D-08.
      3 vectors produced by pass 13 Test12= 2.02D-14 1.00D-09 XBig12= 9.75D-15 2.39D-08.
      3 vectors produced by pass 14 Test12= 2.02D-14 1.00D-09 XBig12= 5.49D-15 1.32D-08.
      2 vectors produced by pass 15 Test12= 2.02D-14 1.00D-09 XBig12= 4.49D-15 1.21D-08.
 InvSVY:  IOpt=1 It=  1 EMax= 1.07D-14
 Solved reduced A of dimension   634 with   105 vectors.
 Isotropic polarizability for W=    0.000000      181.54 Bohr**3.
 End of Minotr F.D. properties file   721 does not exist.
 End of Minotr F.D. properties file   722 does not exist.
 End of Minotr F.D. properties file   788 does not exist.

 **********************************************************************

            Population analysis using the SCF Density.

 **********************************************************************

 Orbital symmetries:
       Occupied  (A) (A) (A) (A) (A) (A) (A) (A) (A) (A) (A) (A)
                 (A) (A) (A) (A) (A) (A) (A) (A) (A) (A) (A) (A)
                 (A) (A) (A) (A) (A) (A) (A) (A) (A) (A) (A) (A)
                 (A) (A) (A) (A) (A) (A) (A) (A) (A) (A) (A) (A)
                 (A) (A) (A) (A) (A) (A) (A) (A) (A)
       Virtual   (A) (A) (A) (A) (A) (A) (A) (A) (A) (A) (A) (A)
                 (A) (A) (A) (A) (A) (A) (A) (A) (A) (A) (A) (A)
                 (A) (A) (A) (A) (A) (A) (A) (A) (A) (A) (A) (A)
                 (A) (A) (A) (A) (A) (A) (A) (A) (A) (A) (A) (A)
                 (A) (A) (A) (A) (A) (A) (A) (A) (A) (A) (A) (A)
                 (A) (A) (A) (A) (A) (A) (A) (A) (A) (A) (A) (A)
                 (A) (A) (A) (A) (A) (A) (A) (A) (A) (A) (A) (A)
                 (A) (A) (A) (A) (A) (A) (A) (A) (A) (A) (A) (A)
                 (A) (A) (A) (A) (A) (A) (A) (A) (A) (A) (A) (A)
                 (A) (A) (A) (A) (A) (A) (A) (A) (A) (A) (A) (A)
                 (A) (A) (A) (A) (A) (A) (A) (A) (A) (A) (A) (A)
                 (A) (A) (A) (A) (A) (A) (A) (A) (A) (A) (A) (A)
                 (A) (A) (A) (A) (A) (A) (A) (A) (A) (A) (A) (A)
                 (A) (A) (A) (A) (A) (A) (A) (A) (A) (A) (A) (A)
                 (A) (A) (A) (A) (A) (A) (A) (A) (A) (A) (A) (A)
                 (A) (A) (A) (A) (A) (A) (A) (A) (A) (A) (A) (A)
                 (A) (A) (A) (A) (A) (A) (A) (A) (A) (A) (A) (A)
                 (A) (A) (A) (A) (A) (A) (A) (A) (A) (A) (A) (A)
                 (A) (A) (A) (A) (A) (A) (A) (A) (A) (A) (A) (A)
                 (A) (A) (A) (A) (A) (A) (A) (A) (A) (A) (A) (A)
                 (A) (A) (A) (A) (A) (A) (A) (A) (A) (A) (A) (A)
                 (A) (A) (A) (A) (A) (A) (A) (A) (A) (A) (A) (A)
                 (A) (A) (A) (A) (A) (A) (A) (A) (A) (A) (A) (A)
                 (A) (A) (A) (A) (A) (A) (A) (A) (A) (A) (A) (A)
                 (A) (A) (A) (A) (A) (A) (A) (A) (A) (A) (A) (A)
                 (A) (A) (A) (A) (A) (A) (A) (A) (A) (A) (A) (A)
                 (A) (A) (A) (A) (A) (A) (A) (A) (A) (A) (A) (A)
                 (A) (A) (A) (A) (A) (A) (A) (A) (A) (A) (A) (A)
                 (A) (A) (A) (A) (A) (A) (A) (A) (A) (A) (A) (A)
                 (A) (A) (A) (A) (A) (A) (A)
 The electronic state is 1-A.
 Alpha  occ. eigenvalues --  -10.18262 -10.18262 -10.17532 -10.17532 -10.17525
 Alpha  occ. eigenvalues --  -10.17525 -10.17459 -10.17459 -10.17339 -10.17339
 Alpha  occ. eigenvalues --  -10.17319 -10.17319 -10.17315 -10.17315 -10.17099
 Alpha  occ. eigenvalues --  -10.17078  -0.86303  -0.86172  -0.81182  -0.78283
 Alpha  occ. eigenvalues --   -0.74843  -0.74818  -0.74817  -0.70478  -0.65013
 Alpha  occ. eigenvalues --   -0.60898  -0.60875  -0.60035  -0.58043  -0.57886
 Alpha  occ. eigenvalues --   -0.51751  -0.51327  -0.48697  -0.46811  -0.46029
 Alpha  occ. eigenvalues --   -0.45911  -0.44651  -0.43187  -0.42460  -0.42417
 Alpha  occ. eigenvalues --   -0.42309  -0.40276  -0.40007  -0.38829  -0.36403
 Alpha  occ. eigenvalues --   -0.36249  -0.36142  -0.34659  -0.34622  -0.34263
 Alpha  occ. eigenvalues --   -0.33862  -0.33057  -0.32582  -0.25694  -0.25668
 Alpha  occ. eigenvalues --   -0.25089  -0.24508
 Alpha virt. eigenvalues --   -0.01344  -0.01319  -0.01247  -0.00905   0.02961
 Alpha virt. eigenvalues --    0.04673   0.05637   0.05727   0.06243   0.07501
 Alpha virt. eigenvalues --    0.07905   0.09157   0.09566   0.10095   0.10483
 Alpha virt. eigenvalues --    0.10530   0.11829   0.11860   0.11921   0.12803
 Alpha virt. eigenvalues --    0.12824   0.13953   0.14439   0.14753   0.15679
 Alpha virt. eigenvalues --    0.15785   0.16500   0.18012   0.19231   0.20417
 Alpha virt. eigenvalues --    0.20941   0.21142   0.21495   0.21500   0.22698
 Alpha virt. eigenvalues --    0.23321   0.23537   0.23845   0.23958   0.24236
 Alpha virt. eigenvalues --    0.24729   0.25471   0.26037   0.26173   0.27607
 Alpha virt. eigenvalues --    0.27951   0.28141   0.28569   0.30072   0.30450
 Alpha virt. eigenvalues --    0.31208   0.31274   0.31507   0.31918   0.32515
 Alpha virt. eigenvalues --    0.34051   0.34423   0.35896   0.36271   0.36291
 Alpha virt. eigenvalues --    0.36324   0.36965   0.37440   0.37440   0.37788
 Alpha virt. eigenvalues --    0.39050   0.39396   0.39934   0.40050   0.40403
 Alpha virt. eigenvalues --    0.41532   0.42209   0.42273   0.43004   0.43379
 Alpha virt. eigenvalues --    0.43732   0.43986   0.44689   0.44917   0.45065
 Alpha virt. eigenvalues --    0.46675   0.46820   0.47082   0.47873   0.48330
 Alpha virt. eigenvalues --    0.48539   0.48917   0.49288   0.50965   0.51013
 Alpha virt. eigenvalues --    0.51470   0.51967   0.52102   0.52281   0.53063
 Alpha virt. eigenvalues --    0.53109   0.54993   0.55256   0.58563   0.59429
 Alpha virt. eigenvalues --    0.59924   0.60240   0.62120   0.62554   0.65182
 Alpha virt. eigenvalues --    0.66413   0.66961   0.67032   0.68321   0.68991
 Alpha virt. eigenvalues --    0.69458   0.69687   0.71190   0.72687   0.72839
 Alpha virt. eigenvalues --    0.75161   0.75870   0.76578   0.77704   0.80542
 Alpha virt. eigenvalues --    0.82130   0.90172   0.90309   1.09341   1.15474
 Alpha virt. eigenvalues --    1.16691   1.19387   1.20618   1.21237   1.21416
 Alpha virt. eigenvalues --    1.22675   1.23014   1.24156   1.24928   1.24977
 Alpha virt. eigenvalues --    1.25255   1.25856   1.25893   1.26234   1.27808
 Alpha virt. eigenvalues --    1.29210   1.29469   1.29906   1.30098   1.30203
 Alpha virt. eigenvalues --    1.30406   1.30613   1.30837   1.31764   1.31809
 Alpha virt. eigenvalues --    1.32115   1.32519   1.33153   1.37312   1.39984
 Alpha virt. eigenvalues --    1.40725   1.41661   1.41947   1.42386   1.44045
 Alpha virt. eigenvalues --    1.44722   1.44743   1.44900   1.44956   1.44989
 Alpha virt. eigenvalues --    1.45288   1.45424   1.46633   1.47283   1.47579
 Alpha virt. eigenvalues --    1.48112   1.49754   1.49915   1.50214   1.51656
 Alpha virt. eigenvalues --    1.52127   1.52239   1.52658   1.52905   1.53179
 Alpha virt. eigenvalues --    1.54122   1.54290   1.54747   1.55037   1.55290
 Alpha virt. eigenvalues --    1.56081   1.58111   1.58745   1.61386   1.62138
 Alpha virt. eigenvalues --    1.64079   1.65045   1.67478   1.67716   1.68855
 Alpha virt. eigenvalues --    1.69150   1.70126   1.73031   1.75093   1.75984
 Alpha virt. eigenvalues --    1.76679   1.76928   1.77602   1.78476   1.79555
 Alpha virt. eigenvalues --    1.79690   1.80290   1.80307   1.82179   1.84174
 Alpha virt. eigenvalues --    1.84403   1.85156   1.86275   1.86299   1.86689
 Alpha virt. eigenvalues --    1.87186   1.87462   1.88021   1.88443   1.88988
 Alpha virt. eigenvalues --    1.89663   1.89778   1.89985   1.90932   1.91729
 Alpha virt. eigenvalues --    1.91779   1.92094   1.92786   1.93352   1.97328
 Alpha virt. eigenvalues --    1.97752   1.98805   2.01391   2.01497   2.01595
 Alpha virt. eigenvalues --    2.02446   2.04554   2.05162   2.08281   2.10820
 Alpha virt. eigenvalues --    2.14078   2.17341   2.17590   2.17998   2.19583
 Alpha virt. eigenvalues --    2.21336   2.23248   2.25447   2.27502   2.27977
 Alpha virt. eigenvalues --    2.30703   2.30838   2.31325   2.31871   2.32337
 Alpha virt. eigenvalues --    2.33028   2.33878   2.35287   2.35508   2.35694
 Alpha virt. eigenvalues --    2.37135   2.37215   2.40319   2.41767   2.42238
 Alpha virt. eigenvalues --    2.46871   2.47798   2.49597   2.49871   2.50010
 Alpha virt. eigenvalues --    2.51318   2.51857   2.53641   2.53889   2.55317
 Alpha virt. eigenvalues --    2.56672   2.56674   2.56971   2.59319   2.60543
 Alpha virt. eigenvalues --    2.60661   2.64624   2.64626   2.65019   2.65527
 Alpha virt. eigenvalues --    2.66827   2.67798   2.68068   2.68096   2.69652
 Alpha virt. eigenvalues --    2.70591   2.70845   2.74609   2.74648   2.74791
 Alpha virt. eigenvalues --    2.76983   2.78468   2.79806   2.80340   2.80820
 Alpha virt. eigenvalues --    2.82347   2.84866   2.88883   2.90783   2.97404
 Alpha virt. eigenvalues --    2.97501   3.02054   3.02369   3.04002   3.04594
 Alpha virt. eigenvalues --    3.07375   3.07489   3.10601   3.13076   3.13796
 Alpha virt. eigenvalues --    3.13834   3.17650   3.17915   3.18068   3.18354
 Alpha virt. eigenvalues --    3.19415   3.21873   3.29819   3.30227   3.33239
 Alpha virt. eigenvalues --    3.34670   3.38096   3.39745   3.40572   3.41413
 Alpha virt. eigenvalues --    3.44109   3.44513   3.47192   3.47287   3.53207
 Alpha virt. eigenvalues --    3.53238   3.53353   3.80673   3.81198  21.31645
 Alpha virt. eigenvalues --   21.32841  21.84178  21.84653  21.84898  21.86157
 Alpha virt. eigenvalues --   22.01394  22.07307  22.08532  22.08738  22.10779
 Alpha virt. eigenvalues --   22.12643  22.14322  22.15926  22.25975  22.26836
          Condensed to atoms (all electrons):
               1          2          3          4          5          6
     1  C    4.975137   0.475049  -0.032639  -0.065419  -0.032636   0.475050
     2  C    0.475049   4.986014   0.431589  -0.019723  -0.102013  -0.022547
     3  C   -0.032639   0.431589   5.103489   0.455078  -0.015984  -0.102011
     4  C   -0.065419  -0.019723   0.455078   5.128355   0.455080  -0.019722
     5  C   -0.032636  -0.102013  -0.015984   0.455080   5.103499   0.431583
     6  C    0.475050  -0.022547  -0.102011  -0.019722   0.431583   4.986015
     7  H    0.407399  -0.048318   0.013903  -0.002066   0.013903  -0.048319
     8  H   -0.049918   0.404480  -0.044083   0.012940   0.000051   0.011391
     9  H    0.011924  -0.048502   0.411867  -0.054919   0.013968  -0.002106
    10  H    0.011924  -0.002106   0.013968  -0.054919   0.411866  -0.048502
    11  H   -0.049918   0.011391   0.000051   0.012940  -0.044084   0.404481
    12  C    0.000636   0.017364  -0.068638   0.163504  -0.068639   0.017364
    13  H    0.000249  -0.001188   0.008064  -0.062401   0.001153   0.000091
    14  H    0.000249   0.000090   0.001154  -0.062407   0.008065  -0.001188
    15  C    0.000212  -0.000196  -0.011149  -0.047613  -0.011150  -0.000195
    16  H    0.000013  -0.000295   0.003225  -0.000051   0.002038  -0.000533
    17  H    0.000013  -0.000533   0.002038  -0.000047   0.003225  -0.000295
    18  C   -0.000053   0.000121  -0.000590   0.015136  -0.000590   0.000121
    19  H    0.000000   0.000005  -0.000253  -0.000964   0.000720  -0.000011
    20  H    0.000000  -0.000011   0.000720  -0.000966  -0.000253   0.000005
    21  C    0.000001   0.000002  -0.000110  -0.001479  -0.000110   0.000002
    22  H    0.000000  -0.000002   0.000033  -0.000072  -0.000057   0.000002
    23  H    0.000000   0.000002  -0.000057  -0.000072   0.000033  -0.000002
    24  C   -0.000000   0.000000  -0.000002   0.000109  -0.000002   0.000000
    25  C   -0.000000   0.000000   0.000000  -0.000002  -0.000001  -0.000000
    26  C   -0.000000  -0.000000  -0.000001  -0.000002   0.000000   0.000000
    27  C   -0.000000   0.000000   0.000000   0.000000  -0.000000   0.000000
    28  H   -0.000000  -0.000000  -0.000000  -0.000003  -0.000000  -0.000000
    29  C   -0.000000   0.000000  -0.000000   0.000000   0.000000   0.000000
    30  H   -0.000000  -0.000000  -0.000000  -0.000003  -0.000000  -0.000000
    31  C    0.000000  -0.000000  -0.000000  -0.000000  -0.000000  -0.000000
    32  H   -0.000000   0.000000  -0.000000  -0.000000  -0.000000  -0.000000
    33  H   -0.000000  -0.000000  -0.000000  -0.000000  -0.000000   0.000000
    34  H    0.000000   0.000000   0.000000  -0.000000   0.000000   0.000000
               7          8          9         10         11         12
     1  C    0.407399  -0.049918   0.011924   0.011924  -0.049918   0.000636
     2  C   -0.048318   0.404480  -0.048502  -0.002106   0.011391   0.017364
     3  C    0.013903  -0.044083   0.411867   0.013968   0.000051  -0.068638
     4  C   -0.002066   0.012940  -0.054919  -0.054919   0.012940   0.163504
     5  C    0.013903   0.000051   0.013968   0.411866  -0.044084  -0.068639
     6  C   -0.048319   0.011391  -0.002106  -0.048502   0.404481   0.017364
     7  H    0.566286  -0.005954  -0.000329  -0.000329  -0.005954  -0.000035
     8  H   -0.005954   0.571273  -0.005739   0.000059  -0.000361  -0.000853
     9  H   -0.000329  -0.005739   0.573270  -0.000312   0.000059  -0.004660
    10  H   -0.000329   0.000059  -0.000312   0.573269  -0.005739  -0.004659
    11  H   -0.005954  -0.000361   0.000059  -0.005739   0.571273  -0.000853
    12  C   -0.000035  -0.000853  -0.004660  -0.004659  -0.000853   5.317260
    13  H   -0.000000   0.000020   0.000369   0.002022  -0.000035   0.437283
    14  H   -0.000000  -0.000035   0.002022   0.000369   0.000020   0.437281
    15  C    0.000006  -0.000003  -0.003091  -0.003091  -0.000003   0.197800
    16  H   -0.000001  -0.000003   0.000113   0.001046   0.000014  -0.044989
    17  H   -0.000001   0.000014   0.001046   0.000113  -0.000003  -0.044982
    18  C   -0.000000  -0.000003  -0.000260  -0.000260  -0.000003  -0.033018
    19  H   -0.000000   0.000000   0.000008   0.000049  -0.000000  -0.002988
    20  H   -0.000000  -0.000000   0.000049   0.000008   0.000000  -0.002991
    21  C    0.000000   0.000000  -0.000011  -0.000011   0.000000   0.015325
    22  H   -0.000000  -0.000000   0.000000  -0.000001   0.000000  -0.000368
    23  H   -0.000000   0.000000  -0.000001   0.000000  -0.000000  -0.000367
    24  C   -0.000000  -0.000000  -0.000003  -0.000003  -0.000000  -0.001479
    25  C    0.000000  -0.000000  -0.000000  -0.000000  -0.000000  -0.000110
    26  C    0.000000  -0.000000  -0.000000  -0.000000  -0.000000  -0.000110
    27  C    0.000000   0.000000  -0.000000  -0.000000  -0.000000   0.000002
    28  H   -0.000000  -0.000000  -0.000000  -0.000000  -0.000000  -0.000011
    29  C    0.000000  -0.000000  -0.000000  -0.000000   0.000000   0.000002
    30  H   -0.000000  -0.000000  -0.000000  -0.000000  -0.000000  -0.000011
    31  C    0.000000  -0.000000  -0.000000  -0.000000  -0.000000   0.000001
    32  H   -0.000000   0.000000  -0.000000  -0.000000  -0.000000   0.000000
    33  H   -0.000000  -0.000000  -0.000000  -0.000000   0.000000   0.000000
    34  H    0.000000  -0.000000  -0.000000  -0.000000  -0.000000   0.000000
              13         14         15         16         17         18
     1  C    0.000249   0.000249   0.000212   0.000013   0.000013  -0.000053
     2  C   -0.001188   0.000090  -0.000196  -0.000295  -0.000533   0.000121
     3  C    0.008064   0.001154  -0.011149   0.003225   0.002038  -0.000590
     4  C   -0.062401  -0.062407  -0.047613  -0.000051  -0.000047   0.015136
     5  C    0.001153   0.008065  -0.011150   0.002038   0.003225  -0.000590
     6  C    0.000091  -0.001188  -0.000195  -0.000533  -0.000295   0.000121
     7  H   -0.000000  -0.000000   0.000006  -0.000001  -0.000001  -0.000000
     8  H    0.000020  -0.000035  -0.000003  -0.000003   0.000014  -0.000003
     9  H    0.000369   0.002022  -0.003091   0.000113   0.001046  -0.000260
    10  H    0.002022   0.000369  -0.003091   0.001046   0.000113  -0.000260
    11  H   -0.000035   0.000020  -0.000003   0.000014  -0.000003  -0.000003
    12  C    0.437283   0.437281   0.197800  -0.044989  -0.044982  -0.033018
    13  H    0.556658  -0.026623  -0.050786  -0.002054   0.006395  -0.004958
    14  H   -0.026623   0.556661  -0.050781   0.006395  -0.002054  -0.004957
    15  C   -0.050786  -0.050781   5.329911   0.419057   0.419056   0.160514
    16  H   -0.002054   0.006395   0.419057   0.565988  -0.021197  -0.047480
    17  H    0.006395  -0.002054   0.419056  -0.021197   0.565985  -0.047481
    18  C   -0.004958  -0.004957   0.160514  -0.047480  -0.047481   5.329906
    19  H    0.001199   0.001938  -0.047478  -0.000735   0.006238   0.419050
    20  H    0.001938   0.001200  -0.047486   0.006238  -0.000737   0.419067
    21  C   -0.000368  -0.000367  -0.033017  -0.002989  -0.002991   0.197789
    22  H    0.000291  -0.000110  -0.004961   0.001199   0.001938  -0.050776
    23  H   -0.000110   0.000291  -0.004954   0.001938   0.001199  -0.050792
    24  C   -0.000072  -0.000072   0.015138  -0.000964  -0.000966  -0.047606
    25  C   -0.000057   0.000033  -0.000590   0.000720  -0.000253  -0.011148
    26  C    0.000033  -0.000057  -0.000590  -0.000253   0.000720  -0.011150
    27  C    0.000002  -0.000002   0.000121  -0.000011   0.000005  -0.000195
    28  H   -0.000001   0.000000  -0.000260   0.000049   0.000008  -0.003091
    29  C   -0.000002   0.000002   0.000121   0.000005  -0.000011  -0.000195
    30  H    0.000000  -0.000001  -0.000260   0.000008   0.000049  -0.003091
    31  C    0.000000   0.000000  -0.000053   0.000000   0.000000   0.000212
    32  H    0.000000  -0.000000  -0.000003  -0.000000   0.000000  -0.000003
    33  H   -0.000000   0.000000  -0.000003   0.000000  -0.000000  -0.000003
    34  H   -0.000000  -0.000000  -0.000000  -0.000000  -0.000000   0.000006
              19         20         21         22         23         24
     1  C    0.000000   0.000000   0.000001   0.000000   0.000000  -0.000000
     2  C    0.000005  -0.000011   0.000002  -0.000002   0.000002   0.000000
     3  C   -0.000253   0.000720  -0.000110   0.000033  -0.000057  -0.000002
     4  C   -0.000964  -0.000966  -0.001479  -0.000072  -0.000072   0.000109
     5  C    0.000720  -0.000253  -0.000110  -0.000057   0.000033  -0.000002
     6  C   -0.000011   0.000005   0.000002   0.000002  -0.000002   0.000000
     7  H   -0.000000  -0.000000   0.000000  -0.000000  -0.000000  -0.000000
     8  H    0.000000  -0.000000   0.000000  -0.000000   0.000000  -0.000000
     9  H    0.000008   0.000049  -0.000011   0.000000  -0.000001  -0.000003
    10  H    0.000049   0.000008  -0.000011  -0.000001   0.000000  -0.000003
    11  H   -0.000000   0.000000   0.000000   0.000000  -0.000000  -0.000000
    12  C   -0.002988  -0.002991   0.015325  -0.000368  -0.000367  -0.001479
    13  H    0.001199   0.001938  -0.000368   0.000291  -0.000110  -0.000072
    14  H    0.001938   0.001200  -0.000367  -0.000110   0.000291  -0.000072
    15  C   -0.047478  -0.047486  -0.033017  -0.004961  -0.004954   0.015138
    16  H   -0.000735   0.006238  -0.002989   0.001199   0.001938  -0.000964
    17  H    0.006238  -0.000737  -0.002991   0.001938   0.001199  -0.000966
    18  C    0.419050   0.419067   0.197789  -0.050776  -0.050792  -0.047606
    19  H    0.565990  -0.021198  -0.044979  -0.002055   0.006395  -0.000054
    20  H   -0.021198   0.565987  -0.044992   0.006395  -0.002053  -0.000046
    21  C   -0.044979  -0.044992   5.317258   0.437273   0.437302   0.163496
    22  H   -0.002055   0.006395   0.437273   0.556659  -0.026624  -0.062397
    23  H    0.006395  -0.002053   0.437302  -0.026624   0.556665  -0.062420
    24  C   -0.000054  -0.000046   0.163496  -0.062397  -0.062420   5.128367
    25  C    0.002039   0.003226  -0.068635   0.001155   0.008063   0.455089
    26  C    0.003225   0.002038  -0.068634   0.008064   0.001155   0.455077
    27  C   -0.000533  -0.000295   0.017363   0.000091  -0.001188  -0.019724
    28  H    0.001046   0.000113  -0.004659   0.002022   0.000369  -0.054918
    29  C   -0.000295  -0.000533   0.017363  -0.001188   0.000091  -0.019727
    30  H    0.000113   0.001046  -0.004659   0.000369   0.002021  -0.054919
    31  C    0.000013   0.000013   0.000637   0.000249   0.000249  -0.065416
    32  H    0.000014  -0.000003  -0.000853  -0.000035   0.000020   0.012940
    33  H   -0.000003   0.000014  -0.000853   0.000020  -0.000035   0.012940
    34  H   -0.000001  -0.000001  -0.000035  -0.000000  -0.000000  -0.002066
              25         26         27         28         29         30
     1  C   -0.000000  -0.000000  -0.000000  -0.000000  -0.000000  -0.000000
     2  C    0.000000  -0.000000   0.000000  -0.000000   0.000000  -0.000000
     3  C    0.000000  -0.000001   0.000000  -0.000000  -0.000000  -0.000000
     4  C   -0.000002  -0.000002   0.000000  -0.000003   0.000000  -0.000003
     5  C   -0.000001   0.000000  -0.000000  -0.000000   0.000000  -0.000000
     6  C   -0.000000   0.000000   0.000000  -0.000000   0.000000  -0.000000
     7  H    0.000000   0.000000   0.000000  -0.000000   0.000000  -0.000000
     8  H   -0.000000  -0.000000   0.000000  -0.000000  -0.000000  -0.000000
     9  H   -0.000000  -0.000000  -0.000000  -0.000000  -0.000000  -0.000000
    10  H   -0.000000  -0.000000  -0.000000  -0.000000  -0.000000  -0.000000
    11  H   -0.000000  -0.000000  -0.000000  -0.000000   0.000000  -0.000000
    12  C   -0.000110  -0.000110   0.000002  -0.000011   0.000002  -0.000011
    13  H   -0.000057   0.000033   0.000002  -0.000001  -0.000002   0.000000
    14  H    0.000033  -0.000057  -0.000002   0.000000   0.000002  -0.000001
    15  C   -0.000590  -0.000590   0.000121  -0.000260   0.000121  -0.000260
    16  H    0.000720  -0.000253  -0.000011   0.000049   0.000005   0.000008
    17  H   -0.000253   0.000720   0.000005   0.000008  -0.000011   0.000049
    18  C   -0.011148  -0.011150  -0.000195  -0.003091  -0.000195  -0.003091
    19  H    0.002039   0.003225  -0.000533   0.001046  -0.000295   0.000113
    20  H    0.003226   0.002038  -0.000295   0.000113  -0.000533   0.001046
    21  C   -0.068635  -0.068634   0.017363  -0.004659   0.017363  -0.004659
    22  H    0.001155   0.008064   0.000091   0.002022  -0.001188   0.000369
    23  H    0.008063   0.001155  -0.001188   0.000369   0.000091   0.002021
    24  C    0.455089   0.455077  -0.019724  -0.054918  -0.019727  -0.054919
    25  C    5.103481  -0.015986   0.431585   0.411866  -0.102010   0.013968
    26  C   -0.015986   5.103486  -0.102012   0.013968   0.431591   0.411866
    27  C    0.431585  -0.102012   4.986015  -0.048504  -0.022548  -0.002106
    28  H    0.411866   0.013968  -0.048504   0.573270  -0.002106  -0.000312
    29  C   -0.102010   0.431591  -0.022548  -0.002106   4.986014  -0.048501
    30  H    0.013968   0.411866  -0.002106  -0.000312  -0.048501   0.573269
    31  C   -0.032642  -0.032639   0.475055   0.011924   0.475049   0.011923
    32  H   -0.044084   0.000051   0.404480  -0.005739   0.011391   0.000059
    33  H    0.000052  -0.044083   0.011391   0.000059   0.404480  -0.005739
    34  H    0.013903   0.013903  -0.048318  -0.000329  -0.048319  -0.000329
              31         32         33         34
     1  C    0.000000  -0.000000  -0.000000   0.000000
     2  C   -0.000000   0.000000  -0.000000   0.000000
     3  C   -0.000000  -0.000000  -0.000000   0.000000
     4  C   -0.000000  -0.000000  -0.000000  -0.000000
     5  C   -0.000000  -0.000000  -0.000000   0.000000
     6  C   -0.000000  -0.000000   0.000000   0.000000
     7  H    0.000000  -0.000000  -0.000000   0.000000
     8  H   -0.000000   0.000000  -0.000000  -0.000000
     9  H   -0.000000  -0.000000  -0.000000  -0.000000
    10  H   -0.000000  -0.000000  -0.000000  -0.000000
    11  H   -0.000000  -0.000000   0.000000  -0.000000
    12  C    0.000001   0.000000   0.000000   0.000000
    13  H    0.000000   0.000000  -0.000000  -0.000000
    14  H    0.000000  -0.000000   0.000000  -0.000000
    15  C   -0.000053  -0.000003  -0.000003  -0.000000
    16  H    0.000000  -0.000000   0.000000  -0.000000
    17  H    0.000000   0.000000  -0.000000  -0.000000
    18  C    0.000212  -0.000003  -0.000003   0.000006
    19  H    0.000013   0.000014  -0.000003  -0.000001
    20  H    0.000013  -0.000003   0.000014  -0.000001
    21  C    0.000637  -0.000853  -0.000853  -0.000035
    22  H    0.000249  -0.000035   0.000020  -0.000000
    23  H    0.000249   0.000020  -0.000035  -0.000000
    24  C   -0.065416   0.012940   0.012940  -0.002066
    25  C   -0.032642  -0.044084   0.000052   0.013903
    26  C   -0.032639   0.000051  -0.044083   0.013903
    27  C    0.475055   0.404480   0.011391  -0.048318
    28  H    0.011924  -0.005739   0.000059  -0.000329
    29  C    0.475049   0.011391   0.404480  -0.048319
    30  H    0.011923   0.000059  -0.005739  -0.000329
    31  C    4.975132  -0.049917  -0.049918   0.407399
    32  H   -0.049917   0.571273  -0.000361  -0.005954
    33  H   -0.049918  -0.000361   0.571273  -0.005954
    34  H    0.407399  -0.005954  -0.005954   0.566286
 Mulliken charges:
               1
     1  C   -0.127273
     2  C   -0.080672
     3  C   -0.169663
     4  C    0.149708
     5  C   -0.169666
     6  C   -0.080672
     7  H    0.109808
     8  H    0.106724
     9  H    0.105238
    10  H    0.105239
    11  H    0.106724
    12  C   -0.324062
    13  H    0.132888
    14  H    0.132884
    15  C   -0.224222
    16  H    0.113507
    17  H    0.113508
    18  C   -0.224219
    19  H    0.113506
    20  H    0.113508
    21  C   -0.324059
    22  H    0.132888
    23  H    0.132884
    24  C    0.149700
    25  C   -0.169661
    26  C   -0.169661
    27  C   -0.080674
    28  H    0.105239
    29  C   -0.080673
    30  H    0.105239
    31  C   -0.127272
    32  H    0.106724
    33  H    0.106724
    34  H    0.109808
 Sum of Mulliken charges =  -0.00000
 Mulliken charges with hydrogens summed into heavy atoms:
               1
     1  C   -0.017465
     2  C    0.026052
     3  C   -0.064425
     4  C    0.149708
     5  C   -0.064427
     6  C    0.026052
    12  C   -0.058289
    15  C    0.002793
    18  C    0.002795
    21  C   -0.058288
    24  C    0.149700
    25  C   -0.064422
    26  C   -0.064422
    27  C    0.026050
    29  C    0.026051
    31  C   -0.017463
 APT charges:
               1
     1  C   -0.071459
     2  C   -0.005313
     3  C   -0.085772
     4  C    0.086235
     5  C   -0.085772
     6  C   -0.005313
     7  H    0.029471
     8  H    0.024118
     9  H    0.030056
    10  H    0.030056
    11  H    0.024118
    12  C    0.080850
    13  H   -0.034674
    14  H   -0.034674
    15  C    0.084069
    16  H   -0.032997
    17  H   -0.032996
    18  C    0.084067
    19  H   -0.032997
    20  H   -0.032995
    21  C    0.080856
    22  H   -0.034676
    23  H   -0.034675
    24  C    0.086229
    25  C   -0.085773
    26  C   -0.085770
    27  C   -0.005313
    28  H    0.030056
    29  C   -0.005315
    30  H    0.030056
    31  C   -0.071458
    32  H    0.024118
    33  H    0.024118
    34  H    0.029470
 Sum of APT charges =   0.00000
 APT charges with hydrogens summed into heavy atoms:
               1
     1  C   -0.041989
     2  C    0.018804
     3  C   -0.055716
     4  C    0.086235
     5  C   -0.055717
     6  C    0.018805
    12  C    0.011503
    15  C    0.018075
    18  C    0.018075
    21  C    0.011505
    24  C    0.086229
    25  C   -0.055717
    26  C   -0.055714
    27  C    0.018805
    29  C    0.018803
    31  C   -0.041988
 Electronic spatial extent (au):  <R**2>=           7337.1086
 Charge=              0.0000 electrons
 Dipole moment (field-independent basis, Debye):
    X=             -0.0000    Y=             -0.0000    Z=             -0.0000  Tot=              0.0000
 Quadrupole moment (field-independent basis, Debye-Ang):
   XX=            -96.3103   YY=            -89.4246   ZZ=           -103.2983
   XY=             -0.0000   XZ=             -4.2031   YZ=             -0.0001
 Traceless Quadrupole moment (field-independent basis, Debye-Ang):
   XX=              0.0341   YY=              6.9198   ZZ=             -6.9539
   XY=             -0.0000   XZ=             -4.2031   YZ=             -0.0001
 Octapole moment (field-independent basis, Debye-Ang**2):
  XXX=             -0.0008  YYY=              0.0002  ZZZ=             -0.0000  XYY=             -0.0000
  XXY=              0.0021  XXZ=             -0.0006  XZZ=              0.0000  YZZ=             -0.0003
  YYZ=             -0.0001  XYZ=              0.0029
 Hexadecapole moment (field-independent basis, Debye-Ang**3):
 XXXX=          -8971.2835 YYYY=           -608.2271 ZZZZ=           -298.6676 XXXY=             -0.0050
 XXXZ=           -307.3006 YYYX=              0.0005 YYYZ=             -0.0004 ZZZX=              3.5133
 ZZZY=             -0.0000 XXYY=          -1546.7577 XXZZ=          -1782.7520 YYZZ=           -164.2844
 XXYZ=             -0.0008 YYXZ=             -8.3267 ZZXY=              0.0001
 N-N= 9.317628134153D+02 E-N=-3.301866088618D+03  KE= 6.174966457680D+02
  Exact polarizability:     248.327      -0.000     178.761     -24.400      -0.000     117.519
 Approx polarizability:     315.333      -0.000     311.920     -44.545      -0.001     186.239
 Calling FoFJK, ICntrl=    100127 FMM=F ISym2X=0 I1Cent= 0 IOpClX= 0 NMat=1 NMatS=1 NMatT=0.
 Full mass-weighted force constant matrix:
 Low frequencies ---   -6.7829   -0.0015   -0.0008    0.0017    1.7217    3.4444
 Low frequencies ---   16.0150   22.8744   36.6748
 Diagonal vibrational polarizability:
        2.7863129       2.4280262      10.6217100
 Harmonic frequencies (cm**-1), IR intensities (KM/Mole), Raman scattering
 activities (A**4/AMU), depolarization ratios for plane and unpolarized
 incident light, reduced masses (AMU), force constants (mDyne/A),
 and normal coordinates:
                      1                      2                      3
                      A                      A                      A
 Frequencies --     16.0150                22.8744                36.6430
 Red. masses --      3.6994                 4.0286                 3.0501
 Frc consts  --      0.0006                 0.0012                 0.0024
 IR Inten    --      0.0054                 0.0143                 0.0000
  Atom  AN      X      Y      Z        X      Y      Z        X      Y      Z
     1   6     0.00  -0.08   0.00     0.00  -0.14  -0.00     0.00   0.05   0.00
     2   6    -0.01  -0.05  -0.16     0.10  -0.10   0.06    -0.09   0.02  -0.07
     3   6    -0.01   0.00  -0.16     0.10  -0.01   0.06    -0.09  -0.06  -0.07
     4   6    -0.00   0.03  -0.00     0.00   0.04   0.00    -0.00  -0.09  -0.00
     5   6     0.01   0.00   0.16    -0.10  -0.01  -0.06     0.09  -0.06   0.07
     6   6     0.01  -0.05   0.16    -0.10  -0.10  -0.06     0.09   0.02   0.07
     7   1     0.00  -0.11   0.00     0.00  -0.22  -0.00     0.00   0.11   0.00
     8   1    -0.01  -0.07  -0.28     0.18  -0.13   0.10    -0.16   0.04  -0.12
     9   1    -0.01   0.02  -0.28     0.18   0.03   0.10    -0.15  -0.08  -0.12
    10   1     0.01   0.02   0.28    -0.18   0.03  -0.10     0.15  -0.08   0.12
    11   1     0.01  -0.07   0.28    -0.18  -0.13  -0.10     0.16   0.04   0.12
    12   6    -0.00   0.08  -0.00     0.00   0.14   0.00    -0.00  -0.16  -0.00
    13   1    -0.02   0.11   0.03    -0.05   0.17   0.03     0.00  -0.26  -0.14
    14   1     0.02   0.11  -0.03     0.05   0.17  -0.03    -0.00  -0.26   0.13
    15   6    -0.00   0.06  -0.00     0.00   0.15   0.00    -0.00   0.02  -0.00
    16   1     0.00   0.05   0.01    -0.01   0.15  -0.00    -0.01   0.11  -0.13
    17   1    -0.00   0.05  -0.01     0.01   0.15   0.00     0.01   0.11   0.13
    18   6    -0.00   0.06  -0.00     0.00   0.15   0.00    -0.00  -0.02  -0.00
    19   1    -0.00   0.05  -0.01     0.01   0.15   0.00    -0.01  -0.11  -0.13
    20   1     0.00   0.05   0.01    -0.01   0.15  -0.00     0.01  -0.11   0.13
    21   6    -0.00   0.08  -0.00     0.00   0.14   0.00    -0.00   0.16  -0.00
    22   1     0.02   0.11  -0.03     0.05   0.17  -0.03     0.00   0.26  -0.14
    23   1    -0.02   0.11   0.03    -0.05   0.17   0.03    -0.00   0.26   0.14
    24   6    -0.00   0.03  -0.00    -0.00   0.04   0.00    -0.00   0.09  -0.00
    25   6    -0.01   0.00  -0.16     0.10  -0.01   0.06     0.09   0.06   0.07
    26   6     0.01   0.00   0.16    -0.10  -0.01  -0.06    -0.09   0.06  -0.07
    27   6    -0.01  -0.05  -0.16     0.10  -0.10   0.06     0.09  -0.02   0.07
    28   1    -0.01   0.02  -0.28     0.18   0.03   0.10     0.15   0.08   0.12
    29   6     0.01  -0.05   0.16    -0.10  -0.10  -0.06    -0.09  -0.02  -0.07
    30   1     0.01   0.02   0.28    -0.18   0.03  -0.10    -0.15   0.08  -0.12
    31   6    -0.00  -0.08   0.00    -0.00  -0.14  -0.00     0.00  -0.05   0.00
    32   1    -0.01  -0.07  -0.28     0.18  -0.13   0.10     0.16  -0.04   0.12
    33   1     0.01  -0.07   0.28    -0.18  -0.13  -0.10    -0.16  -0.04  -0.12
    34   1     0.00  -0.11   0.00    -0.00  -0.22  -0.00     0.00  -0.11   0.00
                      4                      5                      6
                      A                      A                      A
 Frequencies --     41.9908                82.3401               111.1245
 Red. masses --      4.5041                 5.1310                 2.4149
 Frc consts  --      0.0047                 0.0205                 0.0176
 IR Inten    --      0.0095                 0.0000                 0.0770
  Atom  AN      X      Y      Z        X      Y      Z        X      Y      Z
     1   6     0.06  -0.00   0.20    -0.18  -0.00  -0.13    -0.00   0.01  -0.00
     2   6     0.04   0.00   0.13    -0.15   0.00  -0.05    -0.03  -0.00   0.00
     3   6    -0.01  -0.00  -0.01    -0.10   0.00   0.09    -0.03  -0.04   0.00
     4   6    -0.03   0.00  -0.07    -0.08   0.00   0.14    -0.00  -0.06   0.00
     5   6    -0.01   0.00  -0.01    -0.10  -0.00   0.09     0.03  -0.04  -0.00
     6   6     0.04  -0.00   0.13    -0.15  -0.00  -0.05     0.03  -0.00  -0.00
     7   1     0.10  -0.00   0.31    -0.22  -0.00  -0.26    -0.00   0.04  -0.00
     8   1     0.06  -0.00   0.18    -0.17   0.00  -0.11    -0.06   0.01   0.00
     9   1    -0.03  -0.00  -0.05    -0.09  -0.00   0.13    -0.06  -0.06   0.00
    10   1    -0.03   0.00  -0.05    -0.09   0.00   0.13     0.06  -0.06  -0.00
    11   1     0.06  -0.00   0.18    -0.17  -0.00  -0.11     0.06   0.01  -0.00
    12   6    -0.06   0.00  -0.17    -0.07   0.00   0.13    -0.00  -0.08  -0.00
    13   1    -0.09   0.00  -0.17    -0.10  -0.00   0.12    -0.05  -0.21  -0.19
    14   1    -0.09  -0.00  -0.17    -0.10   0.00   0.12     0.05  -0.21   0.19
    15   6    -0.02  -0.00  -0.20     0.01  -0.00   0.06    -0.00   0.21   0.00
    16   1    -0.01  -0.00  -0.19     0.07   0.00   0.08    -0.05   0.31  -0.15
    17   1    -0.01   0.00  -0.19     0.07  -0.00   0.08     0.05   0.31   0.15
    18   6    -0.02   0.00  -0.20    -0.01  -0.00  -0.06    -0.00   0.21  -0.00
    19   1    -0.01   0.00  -0.19    -0.07   0.00  -0.08     0.05   0.31   0.15
    20   1    -0.01  -0.00  -0.19    -0.07  -0.00  -0.08    -0.05   0.31  -0.15
    21   6    -0.06  -0.00  -0.17     0.07   0.00  -0.13     0.00  -0.08   0.00
    22   1    -0.09  -0.00  -0.17     0.10  -0.00  -0.12     0.05  -0.21   0.19
    23   1    -0.09   0.00  -0.17     0.10   0.00  -0.12    -0.05  -0.21  -0.19
    24   6    -0.03  -0.00  -0.07     0.08   0.00  -0.14     0.00  -0.06  -0.00
    25   6    -0.01  -0.00  -0.01     0.10  -0.00  -0.09    -0.03  -0.04   0.00
    26   6    -0.01   0.00  -0.01     0.10   0.00  -0.09     0.03  -0.04  -0.00
    27   6     0.04   0.00   0.13     0.15  -0.00   0.05    -0.03  -0.00   0.00
    28   1    -0.03  -0.00  -0.05     0.09   0.00  -0.13    -0.06  -0.06   0.00
    29   6     0.04  -0.00   0.13     0.15   0.00   0.05     0.03  -0.00  -0.00
    30   1    -0.03   0.00  -0.05     0.09  -0.00  -0.13     0.06  -0.06  -0.00
    31   6     0.06   0.00   0.20     0.18  -0.00   0.13     0.00   0.01   0.00
    32   1     0.06   0.00   0.18     0.17  -0.00   0.11    -0.06   0.01   0.00
    33   1     0.06   0.00   0.18     0.17   0.00   0.11     0.06   0.01  -0.00
    34   1     0.10   0.00   0.31     0.22  -0.00   0.26     0.00   0.04   0.00
                      7                      8                      9
                      A                      A                      A
 Frequencies --    117.7335               195.3813               206.0905
 Red. masses --      1.8581                 4.1740                 5.0488
 Frc consts  --      0.0152                 0.0939                 0.1263
 IR Inten    --      0.0000                 2.3706                 0.0000
  Atom  AN      X      Y      Z        X      Y      Z        X      Y      Z
     1   6     0.00  -0.03   0.00     0.08  -0.00   0.13    -0.07  -0.00   0.17
     2   6     0.02  -0.01  -0.01     0.03  -0.00  -0.00    -0.11   0.01   0.03
     3   6     0.02   0.02  -0.01    -0.02  -0.00  -0.15    -0.15   0.01  -0.13
     4   6    -0.00   0.03  -0.00    -0.02   0.00  -0.14    -0.12   0.00  -0.13
     5   6    -0.02   0.02   0.01    -0.02   0.00  -0.15    -0.15  -0.01  -0.13
     6   6    -0.02  -0.01   0.01     0.03   0.00  -0.00    -0.11  -0.01   0.03
     7   1     0.00  -0.05   0.00     0.14  -0.00   0.29    -0.01  -0.00   0.35
     8   1     0.04  -0.03  -0.02     0.05  -0.00   0.05    -0.08   0.00   0.07
     9   1     0.04   0.03  -0.02    -0.03   0.00  -0.19    -0.19  -0.00  -0.19
    10   1    -0.04   0.03   0.02    -0.03  -0.00  -0.19    -0.19   0.00  -0.19
    11   1    -0.04  -0.03   0.02     0.05   0.00   0.05    -0.08  -0.00   0.07
    12   6    -0.00   0.03  -0.00     0.03  -0.00   0.06    -0.07   0.00  -0.07
    13   1    -0.02  -0.04  -0.10     0.13   0.00   0.09    -0.06  -0.00  -0.07
    14   1     0.02  -0.04   0.10     0.13  -0.00   0.09    -0.06   0.00  -0.07
    15   6    -0.00   0.18   0.00    -0.12  -0.00   0.20    -0.03  -0.00  -0.04
    16   1     0.14   0.37  -0.23    -0.17   0.01   0.17    -0.06  -0.00  -0.05
    17   1    -0.14   0.37   0.23    -0.17  -0.01   0.17    -0.06   0.00  -0.05
    18   6    -0.00  -0.18   0.00    -0.12   0.00   0.20     0.03   0.00   0.04
    19   1     0.14  -0.37  -0.23    -0.17  -0.01   0.17     0.06  -0.00   0.05
    20   1    -0.14  -0.37   0.23    -0.17   0.01   0.17     0.06   0.00   0.05
    21   6    -0.00  -0.03  -0.00     0.03   0.00   0.06     0.07   0.00   0.07
    22   1    -0.02   0.04  -0.10     0.13  -0.00   0.09     0.06  -0.00   0.07
    23   1     0.02   0.04   0.10     0.13   0.00   0.09     0.06   0.00   0.07
    24   6    -0.00  -0.03  -0.00    -0.02   0.00  -0.14     0.12   0.00   0.13
    25   6    -0.02  -0.02   0.01    -0.02  -0.00  -0.15     0.15  -0.01   0.13
    26   6     0.02  -0.02  -0.01    -0.02   0.00  -0.15     0.15   0.01   0.13
[...]
 -0.00005776,0.00004080,0.00117455,-0.00023435,-0.00031555,-0.00017147,
 0.00033174,-0.00045400,0.00027175,-0.00045608,0.00018086,-0.00164468,0
 .00422834,-0.00131768,0.00049134,-0.00049114,0.00020206,0.00018073,-0.
 00039643,-0.00073293,-0.05009962,0.01698172,0.05600733,-0.01249185,-0.
 05414088,-0.02261232,-0.09371556,-0.25101448,-0.04641956,0.05543480,0.
 03733685,-0.03035058,-0.00006819,-0.00093461,-0.00055375,0.15398880,0.
 55027543,-0.00000308,-0.00000276,0.00000174,0.00000094,0.00000419,0.00
 000151,0.00000128,-0.00000773,-0.00000100,0.00002050,-0.00000972,0.000
 02566,-0.00000373,-0.00000895,-0.00000587,-0.00000411,0.00000074,-0.00
 000064,-0.00000111,-0.00000071,0.00000010,-0.00000047,-0.00000005,-0.0
 0000145,-0.00000330,0.00000423,-0.00000045,0.00000089,0.00000052,0.000
 00321,-0.00000194,-0.00000138,0.00000101,-0.00007682,-0.00004826,-0.00
 001046,-0.00000204,-0.00000020,0.00000549,-0.00001106,0.00001400,-0.00
 001629,0.00026511,-0.00014773,-0.00006518,-0.00005400,0.00002225,0.000
 03107,-0.00000252,-0.00002436,0.00001685,-0.00045161,-0.00088777,-0.00
 010794,-0.00006430,0.00013797,-0.00013385,0.00002930,-0.00009934,-0.00
 001520,0.00541943,-0.00273240,0.00008907,0.00105123,0.00121905,0.00003
 914,-0.00010863,0.00025245,0.00034190,-0.00228307,0.02734093,0.0243453
 9,-0.00816140,-0.02324043,-0.01461044,0.04047983,-0.00686130,-0.098776
 95,0.03908498,-0.00101429,-0.03286052,-0.00046953,-0.00037684,-0.00007
 179,-0.25083242,0.15020637,0.47067525,0.00000201,0.00000421,-0.0000012
 6,-0.00000227,-0.00000290,-0.00000170,0.00000554,0.00001070,-0.0000068
 0,-0.00002661,-0.00000694,-0.00001366,0.00000146,0.00001100,0.00000222
 ,-0.00000151,-0.00000067,0.00000089,0.00000170,0.00000084,0.00000076,0
 .00000177,0.00000107,0.00000234,0.00000442,-0.00000502,0.00000246,-0.0
 0000037,-0.00000208,0.00000214,0.00000292,0.00000061,-0.00000016,0.000
 04884,0.00002033,0.00000017,-0.00000214,0.00000323,-0.00001071,-0.0000
 0642,0.00000483,0.00000652,-0.00012426,0.00006444,-0.00000330,-0.00000
 346,-0.00001314,-0.00000253,-0.00000692,-0.00003513,-0.00001160,0.0002
 0260,-0.00003887,-0.00003461,0.00000616,0.00007324,-0.00010216,0.00002
 332,0.00005688,0.00004745,-0.00024104,0.00264460,-0.00053700,0.0000060
 5,-0.00024207,-0.00026132,-0.00025417,-0.00065472,-0.00076385,-0.00113
 625,0.01699490,0.01635872,-0.00134886,-0.00258239,0.00513007,-0.059865
 98,0.02974636,0.04470954,-0.00081652,-0.00059653,0.00015289,0.00002304
 ,0.00086878,0.00099116,0.00670724,-0.01304954,-0.01369278,0.05682305,0
 .00000354,0.00000506,0.00000125,0.00000100,-0.00000225,-0.00000113,0.0
 0000422,0.00000788,-0.00000026,-0.00001570,-0.00001867,-0.00000277,0.0
 0000504,0.00000775,-0.00000009,-0.00000176,-0.00000098,0.00000052,0.00
 000141,0.00000219,-0.00000035,-0.00000005,0.00000338,0.00000140,0.0000
 0008,-0.00000487,-0.00000194,-0.00000208,-0.00000102,0.00000318,0.0000
 0166,0.00000076,-0.00000122,0.00000130,-0.00000121,-0.00000577,-0.0000
 0049,0.00000173,-0.00000156,0.00000183,-0.00000188,0.00000198,0.000035
 91,-0.00004621,-0.00001907,0.00000950,0.00000766,-0.00000644,-0.000011
 59,-0.00000486,0.00000111,-0.00016699,0.00010745,0.00012930,0.00002149
 ,-0.00001306,-0.00000728,0.00002657,-0.00005596,0.00004379,0.00064427,
 -0.00056143,0.00167988,0.00015464,0.00013942,0.00000259,0.00016519,0.0
 0060384,0.00017566,-0.00131595,0.00491815,0.00225490,-0.00232368,0.002
 27913,-0.00047982,0.02962799,-0.18828685,-0.13726296,-0.00039927,0.000
 00631,0.00056314,-0.00014970,0.00027323,0.00012247,0.00711087,-0.01482
 678,-0.01857195,-0.02963134,0.19795546,-0.00000509,-0.00000551,-0.0000
 0015,-0.00000162,0.00000478,0.00000656,0.00000700,-0.00001104,-0.00000
 705,-0.00000190,0.00004235,-0.00000563,-0.00000505,-0.00001602,-0.0000
 0579,0.00000048,-0.00000048,0.00000320,-0.00000288,-0.00000322,0.00000
 038,0.00000082,-0.00000183,-0.00000194,-0.00000482,0.00000975,0.000005
 00,0.00000214,0.00000318,-0.00000239,-0.00000414,-0.00000253,0.0000027
 3,0.00007402,0.00003999,0.00000050,-0.00000030,-0.00000472,0.00000805,
 -0.00001888,0.00002129,-0.00000215,-0.00026110,0.00022375,-0.00007543,
 -0.00005966,-0.00007894,0.00001105,0.00003466,0.00001665,0.00001195,0.
 00076035,0.00026849,-0.00010062,-0.00008018,-0.00005019,0.00013457,-0.
 00021326,0.00032560,-0.00018747,-0.00264944,0.00063232,-0.00085764,-0.
 00020590,-0.00013137,0.00039102,0.00055117,0.00040055,0.00016348,0.002
 60932,-0.01622792,-0.01061645,0.00525288,0.00014345,0.00091147,0.04514
 359,-0.13736449,-0.17628061,0.00020443,0.00064304,0.00007806,0.0003260
 1,-0.00087331,-0.00047617,0.00066171,0.00080336,0.00218877,-0.05187052
 ,0.15126360,0.18215093,-0.00000605,-0.00000851,0.00000163,0.00000189,0
 .00000449,0.00000023,-0.00001257,-0.00001528,0.00000920,0.00004442,0.0
 0001866,0.00003420,-0.00000323,-0.00001964,-0.00000179,0.00000121,0.00
 000116,-0.00000308,-0.00000214,-0.00000233,-0.00000052,-0.00000166,-0.
 00000399,-0.00000289,-0.00000135,0.00000608,-0.00000051,0.00000201,0.0
 0000354,-0.00000510,-0.00000438,-0.00000166,0.00000057,-0.00007510,-0.
 00005137,-0.00003807,-0.00000073,0.00000511,0.00000879,0.00000573,-0.0
 0000536,-0.00000564,0.00028175,-0.00008613,-0.00009989,0.00000382,0.00
 004825,-0.00000505,-0.00003063,-0.00005060,0.00001029,-0.00010534,-0.0
 0003454,-0.00068307,-0.00009602,0.00026788,-0.00022827,0.00021440,-0.0
 0022059,0.00007538,-0.00085304,-0.00023774,0.00068269,0.00028072,-0.00
 025567,-0.00015890,-0.00022416,-0.00011206,-0.00026472,-0.02219101,0.0
 1582911,0.02747415,-0.03126656,-0.05014814,-0.00157392,0.03559327,0.00
 750826,-0.02381996,-0.21723931,-0.01716877,0.14141399,0.00209589,-0.00
 432531,0.00187342,-0.10806949,-0.01456614,0.04035403,0.00101847,-0.005
 62361,0.00211158,0.48093970,-0.00000851,-0.00001399,-0.00000109,-0.000
 00166,0.00000536,-0.00000015,-0.00001810,-0.00002455,0.00001038,0.0000
 7347,0.00002749,0.00003354,-0.00000784,-0.00003202,-0.00000513,0.00000
 216,0.00000532,-0.00000276,-0.00000297,-0.00000465,0.,-0.00000177,-0.0
 0000608,-0.00000416,-0.00000147,0.00000838,0.00000243,0.00000420,0.000
 00506,-0.00000551,-0.00000661,-0.00000340,0.00000278,-0.00012158,-0.00
 009671,-0.00003875,-0.00000629,0.00000402,0.00000619,0.00000623,0.0000
 0014,-0.00000777,0.00016922,0.00001667,0.00033029,-0.00002088,-0.00003
 031,0.00000567,0.00001414,0.00002386,-0.00002242,-0.00094876,0.0001277
 8,-0.00034611,0.00004137,-0.00006829,0.00025652,-0.00001151,0.00014998
 ,-0.00013524,0.00075792,-0.00134392,0.00040457,-0.00015524,0.00007131,
 -0.00008755,-0.00004046,0.00010987,0.00026400,0.01505796,-0.00799806,-
 0.01756587,-0.01915909,0.01571256,0.02649217,-0.02291177,-0.04514939,-
 0.01304653,-0.05895728,-0.11727568,0.01309367,-0.00506325,-0.00264313,
 -0.00209742,0.02669072,-0.21679476,-0.13815424,-0.00494222,-0.00146686
 ,-0.00146827,0.18804212,0.60590586,0.00000162,-0.00000109,-0.00000127,
 -0.00000212,-0.00000103,0.00000103,0.00000198,0.00000026,0.00000039,0.
 00000926,-0.00000588,-0.00000560,0.00000134,-0.00000147,-0.00000148,0.
 00000161,0.00000182,0.00000175,-0.00000023,0.00000046,-0.00000033,-0.0
 0000069,0.00000081,-0.00000016,-0.00000121,0.00000063,-0.00000012,-0.0
 0000126,0.00000124,-0.00000015,-0.00000039,-0.00000021,-0.00000012,-0.
 00000612,0.00001175,0.00000058,-0.00000212,-0.00000299,0.00000317,0.00
 000518,0.00000127,0.00000060,-0.00021615,0.00014662,0.00025314,-0.0000
 1974,-0.00007591,-0.00000076,0.00002700,0.00006233,-0.00002047,-0.0002
 6715,0.00031110,0.00053300,0.00010515,-0.00024869,0.00033234,-0.000250
 21,0.00038240,-0.00019633,0.00022988,-0.00031126,-0.00134542,-0.000487
 30,0.00005366,0.00001364,-0.00001455,-0.00000095,0.00047997,0.02782484
 ,-0.01701149,-0.04267542,0.02039149,0.05501554,0.02412361,-0.04604424,
 -0.04197901,0.01812567,0.11293462,-0.02637382,-0.18041872,0.00133952,-
 0.00271821,0.00422558,0.06907570,-0.09830363,-0.19004782,0.00267121,-0
 .00080679,0.00412731,-0.21058579,0.15744920,0.43183706,-0.00000166,-0.
 00000177,-0.00000069,-0.00000003,0.00000082,0.,-0.00000308,-0.00000256
 ,0.00000001,0.00000793,0.00000653,0.00000069,-0.00000251,-0.00000355,-
 0.00000242,-0.00000020,0.00000149,-0.00000047,0.00000009,-0.00000067,0
 .00000033,0.,-0.00000084,0.00000003,0.00000020,0.00000060,0.00000115,0
 .00000177,-0.00000005,0.00000082,-0.00000034,-0.00000112,0.00000095,-0
 .00000875,-0.00000874,0.00000603,0.00000253,-0.00000185,0.00000031,-0.
 00000056,0.00000110,0.00000107,-0.00000055,-0.00002370,0.00002891,-0.0
 0000610,-0.00000202,-0.00000087,0.00000335,0.00000670,0.00000613,-0.00
 006159,0.00002277,-0.00001784,0.00002271,0.00000040,0.00002258,-0.0000
 0417,0.00000755,0.00000123,0.00045526,-0.00032199,-0.00059920,-0.00004
 165,0.00003878,0.00001424,-0.00011256,-0.00015484,-0.00006218,0.001051
 03,-0.00518346,0.00265995,0.00685096,-0.01297413,-0.01345380,-0.000932
 20,-0.00054269,0.00004789,-0.06130330,0.03181102,0.04672687,-0.0008591
 0,0.00163453,-0.00170949,-0.00079753,-0.00297679,0.00546955,-0.0004054
 1,0.00040089,-0.00052219,-0.00079954,0.01893819,0.01574726,0.05778911,
 -0.00000398,-0.00000608,0.00000081,0.00000004,0.00000391,0.00000183,-0
 .00000512,-0.00001091,0.00000196,0.00003018,0.00001501,0.00002063,-0.0
 0000322,-0.00001731,-0.00000600,0.00000039,0.00000213,-0.00000005,-0.0
 0000172,-0.00000164,-0.00000031,-0.00000084,-0.00000146,-0.00000186,-0
 .00000275,0.00000464,0.00000119,0.00000107,0.00000338,-0.00000183,-0.0
 0000402,-0.00000221,0.00000116,-0.00003759,-0.00003227,-0.00001690,-0.
 00000035,-0.00000200,0.00001147,0.00000104,0.00000008,-0.00000237,0.00
 008304,-0.00003598,0.00006393,-0.00000632,0.00000251,-0.00000353,0.000
 00452,0.00001904,0.00000583,-0.00015128,-0.00004482,-0.00015851,0.0000
 0557,-0.00000491,0.00004129,0.00001621,-0.00000750,0.00000095,0.000496
 40,-0.00036325,-0.00095690,-0.00000902,0.00003675,0.00003486,-0.000174
 64,-0.00038341,-0.00001377,-0.00540621,-0.00129354,-0.00077282,0.00737
 346,-0.01457224,-0.01835082,-0.00053733,-0.00005389,0.00074312,0.03181
 427,-0.19339985,-0.13921066,0.00112112,0.00001777,0.00160587,-0.002413
 41,0.00255071,-0.00084498,0.00041005,-0.00028310,0.00028226,-0.0014303
 3,0.00596109,0.00400877,-0.03248229,0.20186329,-0.00000289,-0.00000416
 ,-0.00000016,-0.00000005,0.00000169,0.00000078,-0.00000449,-0.00000716
 ,-0.00000018,0.00001658,0.00001358,0.00000426,-0.00000466,-0.00000749,
 0.00000013,0.00000116,0.00000136,-0.00000145,-0.00000129,-0.00000211,-
 0.00000006,0.00000003,-0.00000186,-0.00000141,-0.00000083,0.00000306,0
 .00000157,0.00000234,0.00000140,-0.00000194,-0.00000198,-0.00000102,0.
 00000160,-0.00001143,-0.00001195,-0.00000179,0.00000026,0.00000121,-0.
 00000110,-0.00000072,0.00000192,-0.00000014,0.00000501,-0.00000633,0.0
 0001670,-0.00000660,-0.00000153,0.00000167,-0.00000012,-0.00000410,-0.
 00000071,-0.00004193,-0.00000076,-0.00001166,0.00000367,0.00001731,-0.
 00000070,-0.00000205,0.00000801,-0.00000268,0.00025993,0.00014366,0.00
 000776,-0.00004124,-0.00001486,0.00000760,-0.00000453,0.00001570,-0.00
 003232,0.00235955,-0.00164112,0.00421925,0.00042240,0.00093127,0.00217
 494,-0.00000114,0.00069767,0.00005481,0.04661962,-0.13917867,-0.174396
 61,-0.00201469,0.00115603,-0.00116342,0.00584730,-0.00024333,0.0014258
 9,-0.00053838,0.00030346,-0.00054368,0.00187112,-0.01522068,-0.0101741
 8,-0.05314413,0.15233167,0.17992434,-0.00000438,-0.00000661,-0.0000003
 9,0.00000020,0.00000307,-0.00000025,-0.00001047,-0.00001149,0.00000291
 ,0.00002855,0.00001957,0.00001152,-0.00000650,-0.00001141,0.,0.0000023
 4,0.00000172,-0.00000194,-0.00000171,-0.00000264,0.,-0.00000034,-0.000
 00402,-0.00000198,0.00000050,0.00000406,0.00000159,0.00000292,0.000001
 66,-0.00000414,-0.00000260,-0.00000098,0.00000134,-0.00002526,-0.00002
 700,-0.00000833,0.00000012,0.00000172,-0.00000136,0.00000323,-0.000001
 83,0.00000061,0.00004491,-0.00003439,0.00003662,0.00000704,0.00000390,
 -0.00000160,-0.00000482,-0.00000464,-0.00000799,-0.00011433,-0.0000102
 3,-0.00008080,0.00000256,0.00000700,-0.00000108,0.00003066,0.00000237,
 0.00000131,-0.00031815,0.00042599,0.00066307,-0.00016741,-0.00016126,0
 .00001570,0.00000574,-0.00002104,-0.00005852,0.00222188,-0.00512645,0.
 00167064,0.00018863,-0.00014066,-0.00071940,-0.01020160,0.00023654,0.0
 1185096,0.00384692,-0.00055584,0.00277374,-0.00052957,0.00035287,-0.00
 045278,-0.20629728,-0.02952019,0.14408822,-0.00089549,0.00118019,-0.00
 202417,-0.00135688,-0.00155469,0.00219502,-0.00007570,-0.00021801,0.00
 018546,0.21459044,-0.00000166,-0.00000340,-0.00000021,0.00000085,0.000
 00068,-0.00000119,-0.00000901,-0.00000545,0.00000567,0.00002085,0.0000
 0441,0.00000861,-0.00000183,-0.00000603,0.00000040,0.00000174,0.000001
 32,-0.00000138,-0.00000045,-0.00000048,-0.00000028,-0.00000112,-0.0000
 0221,-0.00000102,0.00000075,0.00000150,-0.00000074,0.00000061,0.000000
 76,-0.00000253,-0.00000098,-0.00000025,-0.00000021,-0.00002653,-0.0000
 2111,-0.00000867,-0.00000093,0.00000065,0.00000129,0.00000699,-0.00000
 693,0.00000047,0.00005390,-0.00002898,0.00005955,0.00001513,0.00001262
 ,-0.00000727,-0.00000396,0.00000215,-0.00000344,-0.00015698,0.00000078
 ,-0.00006434,0.00000423,-0.00000226,0.00001316,0.00003317,-0.00002679,
 0.00000936,-0.00081433,0.00030229,0.00074812,-0.00021943,-0.00032907,0
 .00004753,0.00004206,0.00002331,-0.00003186,-0.00427932,-0.00251103,-0
 .00274456,-0.00007604,-0.00104867,-0.00039930,-0.01991074,0.00115658,0
 .01859425,-0.00116684,-0.00162848,-0.00496011,0.00034519,-0.00016199,0
 .00043781,-0.02948992,-0.05778691,0.01204154,0.00163428,-0.00000485,0.
 00112330,0.01854543,0.00651105,-0.01471096,0.00081973,0.00018976,-0.00
 083003,0.03369443,0.05537649,0.00000057,0.00000278,-0.00000012,-0.0000
 0037,-0.00000022,-0.00000039,0.00000388,0.00000514,-0.00000378,-0.0000
 1573,-0.00000227,-0.00000577,0.00000132,0.00000447,-0.00000165,-0.0000
 0155,-0.00000069,0.00000101,0.00000109,0.00000070,0.00000057,0.0000009
 5,0.00000116,0.00000160,0.00000107,-0.00000239,0.00000122,-0.00000016,
 -0.00000123,0.00000273,0.00000134,-0.00000020,-0.00000002,0.00002205,0
 .00000680,0.00000355,0.00000166,-0.00000105,-0.00000139,-0.00000404,0.
 00000330,0.00000314,-0.00002821,-0.00001044,-0.00003577,0.00000053,-0.
 00000386,0.00000202,-0.00000060,-0.00000283,0.00000074,0.00008921,0.00
 000858,-0.00000455,-0.00000049,0.00000188,-0.00001465,0.00000386,0.000
 00746,0.00001324,-0.00000415,-0.00004911,0.00011564,-0.00000648,0.0000
 7412,-0.00003181,-0.00001000,0.00000687,-0.00002636,0.00168703,-0.0023
 2517,0.00426633,-0.00070223,-0.00040426,-0.00007126,-0.00211631,-0.000
 83178,0.00349893,0.00241769,-0.00552757,0.00096017,-0.00043727,0.00041
 554,-0.00054061,0.14417992,0.01198509,-0.16501538,-0.00169196,0.001615
 88,-0.00110463,0.01619340,0.00471167,-0.01016744,0.00091836,0.00014968
 ,-0.00048214,-0.15848069,-0.01104173,0.16960998,-0.00000215,-0.0000029
 7,-0.00000023,0.00000006,0.00000103,0.00000084,-0.00000367,-0.00000569
 ,0.00000034,0.00000964,0.00001357,0.00000047,-0.00000339,-0.00000538,0
 .00000134,0.00000183,0.00000040,-0.00000111,-0.00000119,-0.00000184,-0
 .00000014,0.00000009,-0.00000172,-0.00000129,-0.00000064,0.00000254,0.
 00000111,0.00000170,0.00000141,-0.00000288,-0.00000171,-0.00000045,0.0
 0000109,0.00000425,0.00000150,0.00000296,0.00000014,0.00000077,-0.0000
 0248,-0.00000027,-0.00000006,0.00000087,-0.00001121,0.00001906,-0.0000
 2534,0.00000119,0.00000116,0.00000101,-0.00000315,-0.00000740,-0.00000
 151,0.00003647,0.00005128,0.00000120,-0.00000920,0.00002152,-0.0000246
 4,0.00000665,-0.00000542,-0.00000062,-0.00025307,0.00036952,-0.0004425
 0,-0.00001694,0.00002988,0.00008268,0.00003805,-0.00011422,-0.00010242
 ,-0.00060547,0.00074471,0.00019687,0.00009796,-0.00118704,0.00621908,0
 .00342697,-0.00051084,0.00355138,-0.01007639,-0.02026838,-0.00312230,-
 0.00052235,-0.00107716,-0.00000895,0.00629681,0.00668189,-0.00003739,0
 .00025911,0.00024463,0.00019096,-0.13814408,-0.13585577,0.00533660,-0.
 00076838,0.00153106,-0.00177128,-0.00096413,0.00094072,-0.00202370,0.1
 4120651,-0.00000233,-0.00000465,0.00000046,0.00000040,0.00000210,0.000
 00150,-0.00000385,-0.00000874,0.00000150,0.00002084,0.00001108,0.00001
 013,-0.00000358,-0.00000922,0.00000024,0.00000176,0.00000093,-0.000000
 71,-0.00000184,-0.00000160,-0.00000052,-0.00000067,-0.00000164,-0.0000
 0211,-0.00000187,0.00000412,0.00000008,0.00000084,0.00000219,-0.000003
 22,-0.00000264,-0.00000048,0.00000070,-0.00001928,-0.00001588,-0.00000
 701,-0.00000172,0.00000141,0.00000301,0.00000144,0.00000010,-0.0000031
 4,0.00002176,-0.00000898,0.00002518,-0.00000260,-0.00000044,0.00000040
 ,0.00000223,0.00000366,-0.00000091,-0.00002935,-0.00002609,-0.00000816
 ,-0.00000535,-0.00000540,0.00001280,-0.00000788,0.00000692,-0.00001282
 ,0.00016473,-0.00024272,0.00028734,0.00001069,-0.00000897,-0.00001203,
 0.00001328,0.00005855,0.00005307,0.00087290,0.00012761,-0.00004474,-0.
 00184544,0.00296595,-0.00137716,0.00009170,-0.00001997,-0.00531316,0.0
 0008881,0.00037829,-0.00079377,-0.00003013,-0.00004291,-0.00019056,-0.
 01353169,-0.01460871,0.00179116,-0.00074679,-0.00073853,-0.00000789,-0
 .13591233,-0.24169400,-0.01489447,0.00099195,-0.00015367,0.00154816,0.
 00147830,-0.00000947,0.00120367,0.14838767,0.25403914,-0.00000052,0.,-
 0.00000033,-0.00000026,0.00000045,0.00000070,0.00000078,-0.00000059,-0
 .00000108,-0.00000284,0.00000490,-0.00000387,-0.00000076,-0.00000029,-
 0.00000089,-0.00000034,-0.00000018,0.00000010,-0.00000014,-0.00000052,
 0.00000030,0.00000033,-0.00000031,-0.00000006,-0.00000027,0.00000078,0
 .00000079,0.00000076,-0.00000035,0.00000039,0.,-0.00000028,0.00000057,
 0.00001242,0.00000793,0.00000450,0.00000143,-0.00000174,-0.00000058,-0
 .00000259,0.00000232,0.00000114,-0.00002657,0.00002323,-0.00001771,-0.
 00000577,-0.00000757,0.00000115,0.00000260,0.00000285,0.00000140,0.000
 03788,0.00004981,0.00000694,0.00000695,-0.00000940,0.00001620,-0.00001
 888,0.00003047,-0.00001196,-0.00034936,0.00043458,-0.00032023,-0.00013
 284,-0.00003222,0.00009578,0.00006384,-0.00000461,-0.00002672,0.000138
 57,-0.00013685,-0.00118853,0.00575593,-0.00193295,0.00071041,0.0040399
 3,-0.00471720,0.00036693,0.01081807,0.01852890,0.00393606,0.00069092,0
 .00075629,0.00015865,-0.01404320,-0.01763507,0.00254918,-0.00053420,-0
 .00099472,0.00007277,0.00536249,-0.01485346,-0.04900304,-0.00214109,0.
 00103403,-0.00102496,-0.00165327,0.00171879,-0.00097315,-0.00802002,0.
 01773298,0.04464912\\0.,0.00000010,0.00000001,0.00000014,0.00000023,0.
 00000058,-0.00000030,-0.00000067,-0.00000033,0.00000075,0.00000256,-0.
 00000078,0.00000124,0.00000088,-0.00000038,-0.00000045,-0.00000086,-0.
 00000033,-0.00000014,-0.00000004,0.00000025,0.00000012,0.00000009,-0.0
 0000016,-0.00000016,-0.00000005,0.00000014,-0.00000016,-0.00000015,0.0
 0000002,0.00000003,-0.00000009,0.00000005,0.00000061,-0.00000782,0.000
 00821,0.00000021,0.00000091,-0.00000209,0.00000068,0.00000134,-0.00000
 089,-0.00000506,0.00000112,-0.00000791,0.00000017,0.00000009,0.0000005
 8,0.00000120,0.00000081,0.00000063,0.00000097,0.00000838,0.00000105,0.
 00000004,-0.00000065,-0.00000111,0.00000006,-0.00000258,-0.00000064,0.
 00000128,0.00000063,0.00000681,0.00000057,-0.00000081,-0.00000167,-0.0
 0000057,-0.00000091,-0.00000125,-0.00000087,-0.00000244,0.00000205,-0.
 00000171,-0.00000265,-0.00000181,0.00000173,0.00000232,-0.00000171,0.0
 0000319,0.00000244,-0.00000157,0.00000035,0.00000055,0.00000005,-0.000
 00146,-0.00000411,-0.00000182,-0.00000030,-0.00000020,0.,-0.00000210,0
 .00000138,0.00000426,-0.00000054,-0.00000022,0.00000021,0.00000018,0.0
 0000054,0.00000031,0.00000032,-0.00000011,-0.00000078\\\@
 The archive entry for this job was punched.


 STEINBACH'S GUIDELINES FOR SYSTEMS PROGRAMMING:
 NEVER TEST FOR AN ERROR CONDITION YOU DON'T KNOW HOW
 TO HANDLE.
 Job cpu time:       0 days  2 hours 56 minutes 18.1 seconds.
 Elapsed time:       0 days  2 hours 57 minutes 46.2 seconds.
 File lengths (MBytes):  RWF=    552 Int=      0 D2E=      0 Chk=    536 Scr=      1
 Normal termination of Gaussian 16 at Fri Feb  2 04:17:03 2024.
