 Entering Gaussian System, Link 0=g16
 Input=Azulene_S2_linked1.gjf
 Output=Azulene_S2_linked1.log
 Initial command:
 /apps/gaussian/g16-c01-avx2/g16/l1.exe "/var/tmp/pbs.9092840.pbs/Gau-2661814.inp" -scrdir="/var/tmp/pbs.9092840.pbs/"
 Entering Link 1 = /apps/gaussian/g16-c01-avx2/g16/l1.exe PID=   2661815.
  
 Copyright (c) 1988-2019, Gaussian, Inc.  All Rights Reserved.
  
 This is part of the Gaussian(R) 16 program.  It is based on
 the Gaussian(R) 09 system (copyright 2009, Gaussian, Inc.),
 the Gaussian(R) 03 system (copyright 2003, Gaussian, Inc.),
 the Gaussian(R) 98 system (copyright 1998, Gaussian, Inc.),
 the Gaussian(R) 94 system (copyright 1995, Gaussian, Inc.),
 the Gaussian 92(TM) system (copyright 1992, Gaussian, Inc.),
 the Gaussian 90(TM) system (copyright 1990, Gaussian, Inc.),
 the Gaussian 88(TM) system (copyright 1988, Gaussian, Inc.),
 the Gaussian 86(TM) system (copyright 1986, Carnegie Mellon
 University), and the Gaussian 82(TM) system (copyright 1983,
 Carnegie Mellon University). Gaussian is a federally registered
 trademark of Gaussian, Inc.
  
 This software contains proprietary and confidential information,
 including trade secrets, belonging to Gaussian, Inc.
  
 This software is provided under written license and may be
 used, copied, transmitted, or stored only in accord with that
 written license.
  
 The following legend is applicable only to US Government
 contracts under FAR:
  
                    RESTRICTED RIGHTS LEGEND
  
 Use, reproduction and disclosure by the US Government is
 subject to restrictions as set forth in subparagraphs (a)
 and (c) of the Commercial Computer Software - Restricted
 Rights clause in FAR 52.227-19.
  
 Gaussian, Inc.
 340 Quinnipiac St., Bldg. 40, Wallingford CT 06492
  
  
 ---------------------------------------------------------------
 Warning -- This program may not be used in any manner that
 competes with the business of Gaussian, Inc. or will provide
 assistance to any competitor of Gaussian, Inc.  The licensee
 of this program is prohibited from giving any competitor of
 Gaussian, Inc. access to this program.  By using this program,
 the user acknowledges that Gaussian, Inc. is engaged in the
 business of creating and licensing software in the field of
 computational chemistry and represents and warrants to the
 licensee that it is not a competitor of Gaussian, Inc. and that
 it will not use this program in any manner prohibited above.
 ---------------------------------------------------------------
  

 Cite this work as:
 Gaussian 16, Revision C.01,
 M. J. Frisch, G. W. Trucks, H. B. Schlegel, G. E. Scuseria, 
 M. A. Robb, J. R. Cheeseman, G. Scalmani, V. Barone, 
 G. A. Petersson, H. Nakatsuji, X. Li, M. Caricato, A. V. Marenich, 
 J. Bloino, B. G. Janesko, R. Gomperts, B. Mennucci, H. P. Hratchian, 
 J. V. Ortiz, A. F. Izmaylov, J. L. Sonnenberg, D. Williams-Young, 
 F. Ding, F. Lipparini, F. Egidi, J. Goings, B. Peng, A. Petrone, 
 T. Henderson, D. Ranasinghe, V. G. Zakrzewski, J. Gao, N. Rega, 
 G. Zheng, W. Liang, M. Hada, M. Ehara, K. Toyota, R. Fukuda, 
 J. Hasegawa, M. Ishida, T. Nakajima, Y. Honda, O. Kitao, H. Nakai, 
 T. Vreven, K. Throssell, J. A. Montgomery, Jr., J. E. Peralta, 
 F. Ogliaro, M. J. Bearpark, J. J. Heyd, E. N. Brothers, K. N. Kudin, 
 V. N. Staroverov, T. A. Keith, R. Kobayashi, J. Normand, 
 K. Raghavachari, A. P. Rendell, J. C. Burant, S. S. Iyengar, 
 J. Tomasi, M. Cossi, J. M. Millam, M. Klene, C. Adamo, R. Cammi, 
 J. W. Ochterski, R. L. Martin, K. Morokuma, O. Farkas, 
 J. B. Foresman, and D. J. Fox, Gaussian, Inc., Wallingford CT, 2019.
 
 ******************************************
 Gaussian 16:  ES64L-G16RevC.01  3-Jul-2019
                11-Mar-2024 
 ******************************************
 %chk=Azulene3-1.chk
 %NProcShared=32
 Will use up to   32 processors via shared memory.
 %Mem=256GB
 --------------------------------------------
 #p CAM-B3LYP/TZVP geom=connectivity opt freq
 --------------------------------------------
 1/18=20,19=15,26=3,38=1,57=2/1,3;
 2/9=110,12=2,17=6,18=5,40=1/2;
 3/5=19,7=101,11=2,25=1,30=1,71=1,74=-40/1,2,3;
 4//1;
 5/5=2,38=5/2;
 6/7=2,8=2,9=2,10=2,28=1/1;
 7//1,2,3,16;
 1/18=20,19=15,26=3/3(2);
 2/9=110/2;
 99//99;
 2/9=110/2;
 3/5=19,7=101,11=2,25=1,30=1,71=1,74=-40/1,2,3;
 4/5=5,16=3,69=1/1;
 5/5=2,38=5/2;
 7//1,2,3,16;
 1/18=20,19=15,26=3/3(-5);
 2/9=110/2;
 6/7=2,8=2,9=2,10=2,19=2,28=1/1;
 99/9=1/99;
 Leave Link    1 at Mon Mar 11 15:03:35 2024, MaxMem= 34359738368 cpu:               0.7 elap:               0.0
 (Enter /apps/gaussian/g16-c01-avx2/g16/l101.exe)
 ----------------------------------------------------------------------
 Investigation of Azulene step 1: ground state optimization and frequen
 cy calculation.
 ----------------------------------------------------------------------
 Symbolic Z-matrix:
 Charge =  0 Multiplicity = 1
 C                    -1.58497   0.6383   -0.02075 
 C                    -0.22424   0.6383   -0.02075 
 C                     0.66448   1.74038  -0.02075 
 C                    -2.48977   1.72722  -0.01994 
 C                     0.35715   3.06166  -0.02048 
 C                    -2.22894   3.06186  -0.01906 
 C                    -0.97676   3.71267  -0.01939 
 H                    -2.07565  -0.35732  -0.02133 
 H                     0.27378  -0.35184  -0.02109 
 H                     1.74174   1.475    -0.02116 
 H                    -3.55811   1.4315   -0.01984 
 H                    -3.10188   3.74703  -0.01817 
 C                     1.32864   4.14823  -0.02082 
 H                     2.40548   3.99499  -0.02181 
 C                     0.64868   5.34989  -0.01983 
 H                     1.08552   6.34769  -0.01977 
 C                    -0.77224   5.0894   -0.01894 
 H                    -1.54128   5.85866  -0.018 
 
 ITRead=  0  0  0  0  0  0  0  0  0  0  0  0  0  0  0  0  0  0
 MicOpt= -1 -1 -1 -1 -1 -1 -1 -1 -1 -1 -1 -1 -1 -1 -1 -1 -1 -1
 NAtoms=     18 NQM=       18 NQMF=       0 NMMI=      0 NMMIF=      0
                NMic=       0 NMicF=      0.
                    Isotopes and Nuclear Properties:
 (Nuclear quadrupole moments (NQMom) in fm**2, nuclear magnetic moments (NMagM)
  in nuclear magnetons)

  Atom         1           2           3           4           5           6           7           8           9          10
 IAtWgt=          12          12          12          12          12          12          12           1           1           1
 AtmWgt=  12.0000000  12.0000000  12.0000000  12.0000000  12.0000000  12.0000000  12.0000000   1.0078250   1.0078250   1.0078250
 NucSpn=           0           0           0           0           0           0           0           1           1           1
 AtZEff=  -0.0000000  -0.0000000  -0.0000000  -0.0000000  -0.0000000  -0.0000000  -0.0000000  -0.0000000  -0.0000000  -0.0000000
 NQMom=    0.0000000   0.0000000   0.0000000   0.0000000   0.0000000   0.0000000   0.0000000   0.0000000   0.0000000   0.0000000
 NMagM=    0.0000000   0.0000000   0.0000000   0.0000000   0.0000000   0.0000000   0.0000000   2.7928460   2.7928460   2.7928460
 AtZNuc=   6.0000000   6.0000000   6.0000000   6.0000000   6.0000000   6.0000000   6.0000000   1.0000000   1.0000000   1.0000000

  Atom        11          12          13          14          15          16          17          18
 IAtWgt=           1           1          12           1          12           1          12           1
 AtmWgt=   1.0078250   1.0078250  12.0000000   1.0078250  12.0000000   1.0078250  12.0000000   1.0078250
 NucSpn=           1           1           0           1           0           1           0           1
 AtZEff=  -0.0000000  -0.0000000  -0.0000000  -0.0000000  -0.0000000  -0.0000000  -0.0000000  -0.0000000
 NQMom=    0.0000000   0.0000000   0.0000000   0.0000000   0.0000000   0.0000000   0.0000000   0.0000000
 NMagM=    2.7928460   2.7928460   0.0000000   2.7928460   0.0000000   2.7928460   0.0000000   2.7928460
 AtZNuc=   1.0000000   1.0000000   6.0000000   1.0000000   6.0000000   1.0000000   6.0000000   1.0000000
 Leave Link  101 at Mon Mar 11 15:03:36 2024, MaxMem= 34359738368 cpu:               5.1 elap:               0.2
 (Enter /apps/gaussian/g16-c01-avx2/g16/l103.exe)

 GradGradGradGradGradGradGradGradGradGradGradGradGradGradGradGradGradGrad
 Berny optimization.
 Initialization pass.
                           ----------------------------
                           !    Initial Parameters    !
                           ! (Angstroms and Degrees)  !
 --------------------------                            --------------------------
 ! Name  Definition              Value          Derivative Info.                !
 --------------------------------------------------------------------------------
 ! R1    R(1,2)                  1.3607         estimate D2E/DX2                !
 ! R2    R(1,4)                  1.4158         estimate D2E/DX2                !
 ! R3    R(1,8)                  1.11           estimate D2E/DX2                !
 ! R4    R(2,3)                  1.4158         estimate D2E/DX2                !
 ! R5    R(2,9)                  1.1083         estimate D2E/DX2                !
 ! R6    R(3,5)                  1.3565         estimate D2E/DX2                !
 ! R7    R(3,10)                 1.1095         estimate D2E/DX2                !
 ! R8    R(4,6)                  1.3599         estimate D2E/DX2                !
 ! R9    R(4,11)                 1.1085         estimate D2E/DX2                !
 ! R10   R(5,7)                  1.4843         estimate D2E/DX2                !
 ! R11   R(5,13)                 1.4575         estimate D2E/DX2                !
 ! R12   R(6,7)                  1.4112         estimate D2E/DX2                !
 ! R13   R(6,12)                 1.1097         estimate D2E/DX2                !
 ! R14   R(7,17)                 1.3918         estimate D2E/DX2                !
 ! R15   R(13,14)                1.0877         estimate D2E/DX2                !
 ! R16   R(13,15)                1.3807         estimate D2E/DX2                !
 ! R17   R(15,16)                1.0892         estimate D2E/DX2                !
 ! R18   R(15,17)                1.4446         estimate D2E/DX2                !
 ! R19   R(17,18)                1.0877         estimate D2E/DX2                !
 ! A1    A(2,1,4)              129.7237         estimate D2E/DX2                !
 ! A2    A(2,1,8)              116.2359         estimate D2E/DX2                !
 ! A3    A(4,1,8)              114.0405         estimate D2E/DX2                !
 ! A4    A(1,2,3)              128.8828         estimate D2E/DX2                !
 ! A5    A(1,2,9)              116.7012         estimate D2E/DX2                !
 ! A6    A(3,2,9)              114.416          estimate D2E/DX2                !
 ! A7    A(2,3,5)              128.0227         estimate D2E/DX2                !
 ! A8    A(2,3,10)             115.0433         estimate D2E/DX2                !
 ! A9    A(5,3,10)             116.934          estimate D2E/DX2                !
 ! A10   A(1,4,6)              129.2184         estimate D2E/DX2                !
 ! A11   A(1,4,11)             114.2518         estimate D2E/DX2                !
 ! A12   A(6,4,11)             116.5297         estimate D2E/DX2                !
 ! A13   A(3,5,7)              129.1091         estimate D2E/DX2                !
 ! A14   A(3,5,13)             125.1058         estimate D2E/DX2                !
 ! A15   A(7,5,13)             105.7851         estimate D2E/DX2                !
 ! A16   A(4,6,7)              128.5204         estimate D2E/DX2                !
 ! A17   A(4,6,12)             117.0702         estimate D2E/DX2                !
 ! A18   A(7,6,12)             114.4094         estimate D2E/DX2                !
 ! A19   A(5,7,6)              126.5229         estimate D2E/DX2                !
 ! A20   A(5,7,17)             107.5648         estimate D2E/DX2                !
 ! A21   A(6,7,17)             125.9123         estimate D2E/DX2                !
 ! A22   A(5,13,14)            123.7007         estimate D2E/DX2                !
 ! A23   A(5,13,15)            108.6969         estimate D2E/DX2                !
 ! A24   A(14,13,15)           127.6024         estimate D2E/DX2                !
 ! A25   A(13,15,16)           126.8525         estimate D2E/DX2                !
 ! A26   A(13,15,17)           109.115          estimate D2E/DX2                !
 ! A27   A(16,15,17)           124.0325         estimate D2E/DX2                !
 ! A28   A(7,17,15)            108.8383         estimate D2E/DX2                !
 ! A29   A(7,17,18)            126.5577         estimate D2E/DX2                !
 ! A30   A(15,17,18)           124.604          estimate D2E/DX2                !
 ! D1    D(4,1,2,3)             -0.0424         estimate D2E/DX2                !
 ! D2    D(4,1,2,9)            179.9772         estimate D2E/DX2                !
 ! D3    D(8,1,2,3)            179.9667         estimate D2E/DX2                !
 ! D4    D(8,1,2,9)             -0.0138         estimate D2E/DX2                !
 ! D5    D(2,1,4,6)              0.0054         estimate D2E/DX2                !
 ! D6    D(2,1,4,11)          -179.9819         estimate D2E/DX2                !
 ! D7    D(8,1,4,6)            179.9965         estimate D2E/DX2                !
 ! D8    D(8,1,4,11)             0.0092         estimate D2E/DX2                !
 ! D9    D(1,2,3,5)              0.0145         estimate D2E/DX2                !
 ! D10   D(1,2,3,10)          -179.9765         estimate D2E/DX2                !
 ! D11   D(9,2,3,5)            179.9953         estimate D2E/DX2                !
 ! D12   D(9,2,3,10)             0.0044         estimate D2E/DX2                !
 ! D13   D(2,3,5,7)              0.036          estimate D2E/DX2                !
 ! D14   D(2,3,5,13)          -179.9847         estimate D2E/DX2                !
 ! D15   D(10,3,5,7)          -179.9732         estimate D2E/DX2                !
 ! D16   D(10,3,5,13)            0.0061         estimate D2E/DX2                !
 ! D17   D(1,4,6,7)              0.0355         estimate D2E/DX2                !
 ! D18   D(1,4,6,12)          -179.9796         estimate D2E/DX2                !
 ! D19   D(11,4,6,7)          -179.9775         estimate D2E/DX2                !
 ! D20   D(11,4,6,12)            0.0074         estimate D2E/DX2                !
 ! D21   D(3,5,7,6)             -0.0338         estimate D2E/DX2                !
 ! D22   D(3,5,7,17)           179.9743         estimate D2E/DX2                !
 ! D23   D(13,5,7,6)           179.9838         estimate D2E/DX2                !
 ! D24   D(13,5,7,17)           -0.0082         estimate D2E/DX2                !
 ! D25   D(3,5,13,14)            0.0309         estimate D2E/DX2                !
 ! D26   D(3,5,13,15)         -179.9755         estimate D2E/DX2                !
 ! D27   D(7,5,13,14)         -179.9858         estimate D2E/DX2                !
 ! D28   D(7,5,13,15)            0.0078         estimate D2E/DX2                !
 ! D29   D(4,6,7,5)             -0.0162         estimate D2E/DX2                !
 ! D30   D(4,6,7,17)           179.9742         estimate D2E/DX2                !
 ! D31   D(12,6,7,5)           179.9985         estimate D2E/DX2                !
 ! D32   D(12,6,7,17)           -0.011          estimate D2E/DX2                !
 ! D33   D(5,7,17,15)            0.0056         estimate D2E/DX2                !
 ! D34   D(5,7,17,18)         -179.9909         estimate D2E/DX2                !
 ! D35   D(6,7,17,15)         -179.9864         estimate D2E/DX2                !
 ! D36   D(6,7,17,18)            0.0171         estimate D2E/DX2                !
 ! D37   D(5,13,15,16)         179.9991         estimate D2E/DX2                !
 ! D38   D(5,13,15,17)          -0.0046         estimate D2E/DX2                !
 ! D39   D(14,13,15,16)         -0.0075         estimate D2E/DX2                !
 ! D40   D(14,13,15,17)        179.9887         estimate D2E/DX2                !
 ! D41   D(13,15,17,7)          -0.0007         estimate D2E/DX2                !
 ! D42   D(13,15,17,18)        179.9959         estimate D2E/DX2                !
 ! D43   D(16,15,17,7)         179.9957         estimate D2E/DX2                !
 ! D44   D(16,15,17,18)         -0.0077         estimate D2E/DX2                !
 --------------------------------------------------------------------------------
 Trust Radius=3.00D-01 FncErr=1.00D-07 GrdErr=1.00D-06 EigMax=2.50D+02 EigMin=1.00D-04
 Number of steps in this run=    103 maximum allowed number of steps=    108.
 GradGradGradGradGradGradGradGradGradGradGradGradGradGradGradGradGradGrad

 Leave Link  103 at Mon Mar 11 15:03:36 2024, MaxMem= 34359738368 cpu:               0.3 elap:               0.0
 (Enter /apps/gaussian/g16-c01-avx2/g16/l202.exe)
                          Input orientation:                          
 ---------------------------------------------------------------------
 Center     Atomic      Atomic             Coordinates (Angstroms)
 Number     Number       Type             X           Y           Z
 ---------------------------------------------------------------------
      1          6           0       -1.584971    0.638298   -0.020748
      2          6           0       -0.224241    0.638298   -0.020748
      3          6           0        0.664484    1.740385   -0.020748
      4          6           0       -2.489770    1.727218   -0.019943
      5          6           0        0.357148    3.061658   -0.020478
      6          6           0       -2.228941    3.061865   -0.019055
      7          6           0       -0.976758    3.712669   -0.019388
      8          1           0       -2.075649   -0.357317   -0.021327
      9          1           0        0.273775   -0.351843   -0.021086
     10          1           0        1.741744    1.474997   -0.021161
     11          1           0       -3.558115    1.431505   -0.019842
     12          1           0       -3.101879    3.747028   -0.018174
     13          6           0        1.328641    4.148226   -0.020816
     14          1           0        2.405477    3.994990   -0.021811
     15          6           0        0.648675    5.349895   -0.019828
     16          1           0        1.085516    6.347691   -0.019772
     17          6           0       -0.772236    5.089405   -0.018935
     18          1           0       -1.541284    5.858656   -0.018003
 ---------------------------------------------------------------------
                    Distance matrix (angstroms):
                    1          2          3          4          5
     1  C    0.000000
     2  C    1.360730   0.000000
     3  C    2.504924   1.415778   0.000000
     4  C    1.415771   2.513637   3.154282   0.000000
     5  C    3.105560   2.492125   1.356546   3.144149   0.000000
     6  C    2.507664   3.145235   3.180915   1.359895   2.586089
     7  C    3.133956   3.165129   2.565849   2.496241   1.484292
     8  H    1.109961   2.102133   3.450896   2.125273   4.196176
     9  H    2.106019   1.108332   2.128396   3.458277   3.414519
    10  H    3.430320   2.136624   1.109468   4.239024   2.105849
    11  H    2.126611   3.426937   4.233881   1.108516   4.241071
    12  H    3.459078   4.236155   4.267565   2.110524   3.526274
    13  C    4.561659   3.838103   2.497760   4.521232   1.457542
    14  H    5.214505   4.264129   2.848561   5.395020   2.250947
    15  C    5.214242   4.791777   3.609545   4.793081   2.306733
    16  H    6.303068   5.857699   4.626504   5.842212   3.365789
    17  C    4.524698   4.484714   3.644188   3.775477   2.321049
    18  H    5.220542   5.383934   4.671785   4.238916   3.380421
                    6          7          8          9         10
     6  C    0.000000
     7  C    1.411208   0.000000
     8  H    3.422617   4.215727   0.000000
     9  H    4.232847   4.252540   2.349430   0.000000
    10  H    4.276037   3.520999   4.234367   2.343561   0.000000
    11  H    2.103516   3.444868   2.323272   4.226549   5.300038
    12  H    1.109716   2.125399   4.230698   5.309971   5.350030
    13  C    3.719754   2.346183   5.647044   4.622052   2.704960
    14  H    4.727426   3.393998   6.246845   4.841396   2.605937
    15  C    3.676378   2.307063   6.324098   5.714050   4.026119
    16  H    4.667149   3.346090   7.412833   6.748532   4.916684
    17  C    2.496579   1.391845   5.600506   5.540877   4.402732
    18  H    2.880089   2.218998   6.238900   6.470297   5.476746
                   11         12         13         14         15
    11  H    0.000000
    12  H    2.360043   0.000000
    13  C    5.591150   4.448649   0.000000
    14  H    6.491216   5.512936   1.087685   0.000000
    15  C    5.748988   4.078706   1.380711   2.218586   0.000000
    16  H    6.762558   4.929273   2.212862   2.697685   1.089232
    17  C    4.597973   2.688720   2.302066   3.360895   1.444591
    18  H    4.864903   2.625725   3.340965   4.364652   2.248280
                   16         17         18
    16  H    0.000000
    17  C    2.243775   0.000000
    18  H    2.671935   1.087742   0.000000
 Stoichiometry    C10H8
 Framework group  C1[X(C10H8)]
 Deg. of freedom    48
 Full point group                 C1      NOp   1
 Largest Abelian subgroup         C1      NOp   1
 Largest concise Abelian subgroup C1      NOp   1
                         Standard orientation:                         
 ---------------------------------------------------------------------
 Center     Atomic      Atomic             Coordinates (Angstroms)
 Number     Number       Type             X           Y           Z
 ---------------------------------------------------------------------
      1          6           0        2.492270   -0.037614    0.000299
      2          6           0        1.900978   -1.263159   -0.000313
      3          6           0        0.522194   -1.584690   -0.000302
      4          6           0        1.904703    1.250475    0.000307
      5          6           0       -0.534264   -0.733741    0.000059
      6          6           0        0.589309    1.595517   -0.000201
      7          6           0       -0.540963    0.750536   -0.000188
      8          1           0        3.602193   -0.028319    0.000728
      9          1           0        2.576343   -2.141954   -0.000568
     10          1           0        0.293104   -2.670249   -0.000472
     11          1           0        2.635277    2.084183    0.000576
     12          1           0        0.351542    2.679462   -0.000434
     13          6           0       -1.935037   -1.136561    0.000365
     14          1           0       -2.264953   -2.173004    0.000819
     15          6           0       -2.721850   -0.001974    0.000131
     16          1           0       -3.810342    0.038167    0.000250
     17          6           0       -1.869796    1.164580   -0.000220
     18          1           0       -2.228442    2.191496   -0.000520
 ---------------------------------------------------------------------
 Rotational constants (GHZ):           2.8611931           1.2528776           0.8713328
 Leave Link  202 at Mon Mar 11 15:03:37 2024, MaxMem= 34359738368 cpu:               0.9 elap:               0.0
 (Enter /apps/gaussian/g16-c01-avx2/g16/l301.exe)
 Standard basis: TZVP (5D, 7F)
 Ernie: Thresh=  0.10000D-02 Tol=  0.10000D-05 Strict=F.
 There are   248 symmetry adapted cartesian basis functions of A   symmetry.
 There are   238 symmetry adapted basis functions of A   symmetry.
   238 basis functions,   414 primitive gaussians,   248 cartesian basis functions
    34 alpha electrons       34 beta electrons
       nuclear repulsion energy       453.5602689767 Hartrees.
 IExCor=20419 DFT=T Ex+Corr=CAM-B3LYP ExCW=0 ScaHFX=  1.000000
 ScaDFX=  1.000000  1.000000  1.000000  0.810000 ScalE2=  1.000000  1.000000
 IRadAn=      5 IRanWt=     -1 IRanGd=            0 ICorTp=0 IEmpDi=  4
 HFx  wShort=  0.000000 wLong=  0.330000 cFull=  0.190000 cShort=  0.000000 cLong=  0.460000
 DFx  wShort=  0.000000 wLong=  0.330000 cFull=  0.190000 cShort=  0.000000 cLong=  0.460000
 NAtoms=   18 NActive=   18 NUniq=   18 SFac= 1.00D+00 NAtFMM=   60 NAOKFM=F Big=F
 Integral buffers will be    131072 words long.
 Raffenetti 2 integral format.
 Two-electron integral symmetry is turned on.
 Leave Link  301 at Mon Mar 11 15:03:37 2024, MaxMem= 34359738368 cpu:               1.2 elap:               0.2
 (Enter /apps/gaussian/g16-c01-avx2/g16/l302.exe)
 NPDir=0 NMtPBC=     1 NCelOv=     1 NCel=       1 NClECP=     1 NCelD=      1
         NCelK=      1 NCelE2=     1 NClLst=     1 CellRange=     0.0.
 One-electron integrals computed using PRISM.
 One-electron integral symmetry used in STVInt
 NBasis=   238 RedAO= T EigKep=  1.74D-05  NBF=   238
 NBsUse=   238 1.00D-06 EigRej= -1.00D+00 NBFU=   238
 Precomputing XC quadrature grid using
 IXCGrd= 4 IRadAn=           5 IRanWt=          -1 IRanGd=           0 AccXCQ= 0.00D+00.
 Generated NRdTot=       0 NPtTot=           0 NUsed=           0 NTot=          32
 NSgBfM=   246   246   246   246   246 MxSgAt=    18 MxSgA2=    18.
 Leave Link  302 at Mon Mar 11 15:03:38 2024, MaxMem= 34359738368 cpu:               5.6 elap:               0.2
 (Enter /apps/gaussian/g16-c01-avx2/g16/l303.exe)
 DipDrv:  MaxL=1.
 Leave Link  303 at Mon Mar 11 15:03:39 2024, MaxMem= 34359738368 cpu:               0.8 elap:               0.0
 (Enter /apps/gaussian/g16-c01-avx2/g16/l401.exe)
 ExpMin= 9.52D-02 ExpMax= 1.36D+04 ExpMxC= 4.63D+02 IAcc=3 IRadAn=         5 AccDes= 0.00D+00
 Harris functional with IExCor=20419 and IRadAn=       5 diagonalized for initial guess.
 HarFok:  IExCor=20419 AccDes= 0.00D+00 IRadAn=         5 IDoV= 1 UseB2=F ITyADJ=14
 ICtDFT=  3500011 ScaDFX=  1.000000  1.000000  1.000000  1.000000
 FoFCou: FMM=F IPFlag=           0 FMFlag=      100000 FMFlg1=           0
         NFxFlg=           0 DoJE=T BraDBF=F KetDBF=T FulRan=T
         wScrn=  0.000000 ICntrl=       500 IOpCl=  0 I1Cent=   200000004 NGrid=           0
         NMat0=    1 NMatS0=      1 NMatT0=    0 NMatD0=    1 NMtDS0=    0 NMtDT0=    0
 Petite list used in FoFCou.
 Harris En= -369.895637638377    
 JPrj=0 DoOrth=F DoCkMO=F.
 Leave Link  401 at Mon Mar 11 15:03:40 2024, MaxMem= 34359738368 cpu:              13.7 elap:               0.5
 (Enter /apps/gaussian/g16-c01-avx2/g16/l502.exe)
 Integral symmetry usage will be decided dynamically.
 Closed shell SCF:
 Using DIIS extrapolation, IDIIS=  1040.
 NGot= 34359738368 LenX= 34359604474 LenY= 34359542529
 Requested convergence on RMS density matrix=1.00D-08 within 128 cycles.
 Requested convergence on MAX density matrix=1.00D-06.
 Requested convergence on             energy=1.00D-06.
 No special actions if energy rises.
 Fock matrices will be formed incrementally for  20 cycles.
 Integral accuracy reduced to 1.0D-05 until final iterations.

 Cycle   1  Pass 0  IDiag  1:
 FoFJK:  IHMeth= 1 ICntrl=       0 DoSepK=T KAlg= 0 I1Cent=           0 FoldK=F
 IRaf=         1 NMat=       1 IRICut=       1 DoRegI=T DoRafI=F ISym2E= 0 IDoP0=0 IntGTp=1.
 FoFCou: FMM=F IPFlag=           0 FMFlag=      100000 FMFlg1=           0
         NFxFlg=           0 DoJE=T BraDBF=F KetDBF=F FulRan=T
         wScrn=  0.000000 ICntrl=       500 IOpCl=  0 I1Cent=           0 NGrid=           0
         NMat0=    1 NMatS0=      1 NMatT0=    0 NMatD0=    1 NMtDS0=    0 NMtDT0=    0
 Symmetry not used in FoFCou.
 E= -385.635929842747    
 DIIS: error= 5.12D-02 at cycle   1 NSaved=   1.
 NSaved= 1 IEnMin= 1 EnMin= -385.635929842747     IErMin= 1 ErrMin= 5.12D-02
 ErrMax= 5.12D-02  0.00D+00 EMaxC= 1.00D-01 BMatC= 6.35D-01 BMatP= 6.35D-01
 IDIUse=3 WtCom= 4.88D-01 WtEn= 5.12D-01
 Coeff-Com:  0.100D+01
 Coeff-En:   0.100D+01
 Coeff:      0.100D+01
 Gap=     0.188 Goal=   None    Shift=    0.000
 GapD=    0.188 DampG=1.000 DampE=0.500 DampFc=0.5000 IDamp=-1.
 Damping current iteration by 5.00D-01
 RMSDP=4.39D-03 MaxDP=1.43D-01              OVMax= 8.73D-02

 Cycle   2  Pass 0  IDiag  1:
 RMSU=  1.80D-03    CP:  9.16D-01
 E= -385.677197315917     Delta-E=       -0.041267473169 Rises=F Damp=T
 DIIS: error= 2.46D-02 at cycle   2 NSaved=   2.
 NSaved= 2 IEnMin= 2 EnMin= -385.677197315917     IErMin= 2 ErrMin= 2.46D-02
 ErrMax= 2.46D-02  0.00D+00 EMaxC= 1.00D-01 BMatC= 1.41D-01 BMatP= 6.35D-01
 IDIUse=3 WtCom= 7.54D-01 WtEn= 2.46D-01
 Coeff-Com: -0.829D+00 0.183D+01
 Coeff-En:   0.000D+00 0.100D+01
 Coeff:     -0.626D+00 0.163D+01
 Gap=     0.222 Goal=   None    Shift=    0.000
 RMSDP=2.78D-03 MaxDP=1.05D-01 DE=-4.13D-02 OVMax= 8.61D-02

 Cycle   3  Pass 0  IDiag  1:
 RMSU=  1.45D-03    CP:  8.12D-01  2.00D+00
 E= -385.706072667092     Delta-E=       -0.028875351176 Rises=F Damp=F
 DIIS: error= 1.16D-02 at cycle   3 NSaved=   3.
 NSaved= 3 IEnMin= 3 EnMin= -385.706072667092     IErMin= 3 ErrMin= 1.16D-02
 ErrMax= 1.16D-02  0.00D+00 EMaxC= 1.00D-01 BMatC= 1.13D-02 BMatP= 1.41D-01
 IDIUse=3 WtCom= 8.84D-01 WtEn= 1.16D-01
 Coeff-Com: -0.410D+00 0.881D+00 0.529D+00
 Coeff-En:   0.000D+00 0.000D+00 0.100D+01
 Coeff:     -0.363D+00 0.779D+00 0.583D+00
 Gap=     0.204 Goal=   None    Shift=    0.000
 RMSDP=7.51D-04 MaxDP=1.30D-02 DE=-2.89D-02 OVMax= 6.14D-02

 Cycle   4  Pass 0  IDiag  1:
 RMSU=  3.70D-04    CP:  8.12D-01  2.13D+00  5.79D-01
 E= -385.716576136587     Delta-E=       -0.010503469494 Rises=F Damp=F
 DIIS: error= 4.80D-03 at cycle   4 NSaved=   4.
 NSaved= 4 IEnMin= 4 EnMin= -385.716576136587     IErMin= 4 ErrMin= 4.80D-03
 ErrMax= 4.80D-03  0.00D+00 EMaxC= 1.00D-01 BMatC= 1.38D-03 BMatP= 1.13D-02
 IDIUse=3 WtCom= 9.52D-01 WtEn= 4.80D-02
 Coeff-Com: -0.188D+00 0.406D+00 0.341D+00 0.442D+00
 Coeff-En:   0.000D+00 0.000D+00 0.698D-01 0.930D+00
 Coeff:     -0.179D+00 0.386D+00 0.328D+00 0.465D+00
 Gap=     0.208 Goal=   None    Shift=    0.000
 RMSDP=2.88D-04 MaxDP=7.34D-03 DE=-1.05D-02 OVMax= 1.85D-02

 Cycle   5  Pass 0  IDiag  1:
 RMSU=  1.31D-04    CP:  8.08D-01  2.13D+00  6.91D-01  4.88D-01
 E= -385.718135477250     Delta-E=       -0.001559340663 Rises=F Damp=F
 DIIS: error= 5.61D-04 at cycle   5 NSaved=   5.
 NSaved= 5 IEnMin= 5 EnMin= -385.718135477250     IErMin= 5 ErrMin= 5.61D-04
 ErrMax= 5.61D-04  0.00D+00 EMaxC= 1.00D-01 BMatC= 1.97D-05 BMatP= 1.38D-03
 IDIUse=3 WtCom= 9.94D-01 WtEn= 5.61D-03
 Coeff-Com:  0.605D-02-0.132D-01-0.508D-02 0.949D-01 0.917D+00
 Coeff-En:   0.000D+00 0.000D+00 0.000D+00 0.000D+00 0.100D+01
 Coeff:      0.602D-02-0.131D-01-0.505D-02 0.943D-01 0.918D+00
 Gap=     0.208 Goal=   None    Shift=    0.000
 RMSDP=5.66D-05 MaxDP=1.90D-03 DE=-1.56D-03 OVMax= 4.10D-03

 Cycle   6  Pass 0  IDiag  1:
 RMSU=  3.01D-05    CP:  8.07D-01  2.15D+00  6.92D-01  5.67D-01  9.85D-01
 E= -385.718169234262     Delta-E=       -0.000033757012 Rises=F Damp=F
 DIIS: error= 2.32D-04 at cycle   6 NSaved=   6.
 NSaved= 6 IEnMin= 6 EnMin= -385.718169234262     IErMin= 6 ErrMin= 2.32D-04
 ErrMax= 2.32D-04  0.00D+00 EMaxC= 1.00D-01 BMatC= 3.75D-06 BMatP= 1.97D-05
 IDIUse=3 WtCom= 9.98D-01 WtEn= 2.32D-03
 Coeff-Com:  0.169D-01-0.365D-01-0.279D-01 0.107D-01 0.458D+00 0.578D+00
 Coeff-En:   0.000D+00 0.000D+00 0.000D+00 0.000D+00 0.000D+00 0.100D+01
 Coeff:      0.168D-01-0.364D-01-0.279D-01 0.107D-01 0.457D+00 0.579D+00
 Gap=     0.208 Goal=   None    Shift=    0.000
 RMSDP=1.84D-05 MaxDP=2.64D-04 DE=-3.38D-05 OVMax= 1.76D-03

 Cycle   7  Pass 0  IDiag  1:
 RMSU=  1.66D-05    CP:  8.06D-01  2.15D+00  6.96D-01  5.79D-01  1.01D+00
                    CP:  9.33D-01
 E= -385.718176746605     Delta-E=       -0.000007512343 Rises=F Damp=F
 DIIS: error= 1.46D-04 at cycle   7 NSaved=   7.
 NSaved= 7 IEnMin= 7 EnMin= -385.718176746605     IErMin= 7 ErrMin= 1.46D-04
 ErrMax= 1.46D-04  0.00D+00 EMaxC= 1.00D-01 BMatC= 4.33D-07 BMatP= 3.75D-06
 IDIUse=3 WtCom= 9.99D-01 WtEn= 1.46D-03
 Coeff-Com:  0.118D-02-0.252D-02-0.204D-02-0.190D-01-0.122D+00 0.981D-01
 Coeff-Com:  0.105D+01
 Coeff-En:   0.000D+00 0.000D+00 0.000D+00 0.000D+00 0.000D+00 0.000D+00
 Coeff-En:   0.100D+01
 Coeff:      0.118D-02-0.251D-02-0.203D-02-0.190D-01-0.121D+00 0.980D-01
 Coeff:      0.105D+01
 Gap=     0.208 Goal=   None    Shift=    0.000
 RMSDP=1.29D-05 MaxDP=2.27D-04 DE=-7.51D-06 OVMax= 1.97D-03

 Cycle   8  Pass 0  IDiag  1:
 RMSU=  8.35D-06    CP:  8.06D-01  2.15D+00  6.96D-01  5.77D-01  1.04D+00
                    CP:  1.20D+00  1.22D+00
 E= -385.718180254964     Delta-E=       -0.000003508360 Rises=F Damp=F
 DIIS: error= 8.66D-05 at cycle   8 NSaved=   8.
 NSaved= 8 IEnMin= 8 EnMin= -385.718180254964     IErMin= 8 ErrMin= 8.66D-05
 ErrMax= 8.66D-05  0.00D+00 EMaxC= 1.00D-01 BMatC= 1.31D-07 BMatP= 4.33D-07
 IDIUse=1 WtCom= 1.00D+00 WtEn= 0.00D+00
 Coeff-Com: -0.474D-02 0.103D-01 0.782D-02-0.105D-01-0.181D+00-0.113D+00
 Coeff-Com:  0.347D+00 0.944D+00
 Coeff:     -0.474D-02 0.103D-01 0.782D-02-0.105D-01-0.181D+00-0.113D+00
 Coeff:      0.347D+00 0.944D+00
 Gap=     0.208 Goal=   None    Shift=    0.000
 RMSDP=9.73D-06 MaxDP=2.20D-04 DE=-3.51D-06 OVMax= 1.45D-03

 Initial convergence to 1.0D-05 achieved.  Increase integral accuracy.
 Cycle   9  Pass 1  IDiag  1:
 E= -385.718196900416     Delta-E=       -0.000016645452 Rises=F Damp=F
 DIIS: error= 7.34D-05 at cycle   1 NSaved=   1.
 NSaved= 1 IEnMin= 1 EnMin= -385.718196900416     IErMin= 1 ErrMin= 7.34D-05
 ErrMax= 7.34D-05  0.00D+00 EMaxC= 1.00D-01 BMatC= 2.64D-07 BMatP= 2.64D-07
 IDIUse=1 WtCom= 1.00D+00 WtEn= 0.00D+00
 Coeff-Com:  0.100D+01
 Coeff:      0.100D+01
 Gap=     0.208 Goal=   None    Shift=    0.000
 RMSDP=9.73D-06 MaxDP=2.20D-04 DE=-1.66D-05 OVMax= 3.65D-04

 Cycle  10  Pass 1  IDiag  1:
 RMSU=  1.89D-04    CP:  1.00D+00
 E= -385.718197243180     Delta-E=       -0.000000342764 Rises=F Damp=F
 DIIS: error= 2.44D-05 at cycle   2 NSaved=   2.
 NSaved= 2 IEnMin= 2 EnMin= -385.718197243180     IErMin= 2 ErrMin= 2.44D-05
 ErrMax= 2.44D-05  0.00D+00 EMaxC= 1.00D-01 BMatC= 3.02D-08 BMatP= 2.64D-07
 IDIUse=1 WtCom= 1.00D+00 WtEn= 0.00D+00
 Coeff-Com:  0.118D+00 0.882D+00
 Coeff:      0.118D+00 0.882D+00
 Gap=     0.208 Goal=   None    Shift=    0.000
 RMSDP=1.02D-05 MaxDP=2.26D-04 DE=-3.43D-07 OVMax= 2.32D-04

 Cycle  11  Pass 1  IDiag  1:
 RMSU=  2.73D-06    CP:  1.00D+00  1.05D+00
 E= -385.718197290677     Delta-E=       -0.000000047498 Rises=F Damp=F
 DIIS: error= 1.44D-05 at cycle   3 NSaved=   3.
 NSaved= 3 IEnMin= 3 EnMin= -385.718197290677     IErMin= 3 ErrMin= 1.44D-05
 ErrMax= 1.44D-05  0.00D+00 EMaxC= 1.00D-01 BMatC= 2.89D-08 BMatP= 3.02D-08
 IDIUse=1 WtCom= 1.00D+00 WtEn= 0.00D+00
 Coeff-Com: -0.314D-01 0.500D+00 0.532D+00
 Coeff:     -0.314D-01 0.500D+00 0.532D+00
 Gap=     0.208 Goal=   None    Shift=    0.000
 RMSDP=2.39D-06 MaxDP=5.18D-05 DE=-4.75D-08 OVMax= 1.00D-04

 Cycle  12  Pass 1  IDiag  1:
 RMSU=  1.31D-06    CP:  1.00D+00  1.06D+00  8.60D-01
 E= -385.718197333423     Delta-E=       -0.000000042746 Rises=F Damp=F
 DIIS: error= 1.11D-05 at cycle   4 NSaved=   4.
 NSaved= 4 IEnMin= 4 EnMin= -385.718197333423     IErMin= 4 ErrMin= 1.11D-05
 ErrMax= 1.11D-05  0.00D+00 EMaxC= 1.00D-01 BMatC= 1.44D-09 BMatP= 2.89D-08
 IDIUse=1 WtCom= 1.00D+00 WtEn= 0.00D+00
 Coeff-Com: -0.849D-02-0.101D+00-0.445D-01 0.115D+01
 Coeff:     -0.849D-02-0.101D+00-0.445D-01 0.115D+01
 Gap=     0.208 Goal=   None    Shift=    0.000
 RMSDP=8.22D-07 MaxDP=1.40D-05 DE=-4.27D-08 OVMax= 1.45D-04

 Cycle  13  Pass 1  IDiag  1:
 RMSU=  5.75D-07    CP:  1.00D+00  1.06D+00  9.75D-01  1.30D+00
 E= -385.718197348838     Delta-E=       -0.000000015415 Rises=F Damp=F
 DIIS: error= 5.93D-06 at cycle   5 NSaved=   5.
 NSaved= 5 IEnMin= 5 EnMin= -385.718197348838     IErMin= 5 ErrMin= 5.93D-06
 ErrMax= 5.93D-06  0.00D+00 EMaxC= 1.00D-01 BMatC= 9.57D-10 BMatP= 1.44D-09
 IDIUse=1 WtCom= 1.00D+00 WtEn= 0.00D+00
 Coeff-Com:  0.140D-01-0.379D+00-0.370D+00 0.759D+00 0.976D+00
 Coeff:      0.140D-01-0.379D+00-0.370D+00 0.759D+00 0.976D+00
 Gap=     0.208 Goal=   None    Shift=    0.000
 RMSDP=7.94D-07 MaxDP=1.19D-05 DE=-1.54D-08 OVMax= 1.54D-04

 Cycle  14  Pass 1  IDiag  1:
 RMSU=  3.08D-07    CP:  1.00D+00  1.06D+00  1.03D+00  1.71D+00  1.83D+00
 E= -385.718197355964     Delta-E=       -0.000000007126 Rises=F Damp=F
 DIIS: error= 1.01D-06 at cycle   6 NSaved=   6.
 NSaved= 6 IEnMin= 6 EnMin= -385.718197355964     IErMin= 6 ErrMin= 1.01D-06
 ErrMax= 1.01D-06  0.00D+00 EMaxC= 1.00D-01 BMatC= 6.52D-11 BMatP= 9.57D-10
 IDIUse=1 WtCom= 1.00D+00 WtEn= 0.00D+00
 Coeff-Com:  0.652D-02-0.156D+00-0.156D+00 0.242D+00 0.427D+00 0.637D+00
 Coeff:      0.652D-02-0.156D+00-0.156D+00 0.242D+00 0.427D+00 0.637D+00
 Gap=     0.208 Goal=   None    Shift=    0.000
 RMSDP=1.55D-07 MaxDP=2.60D-06 DE=-7.13D-09 OVMax= 1.59D-05

 Cycle  15  Pass 1  IDiag  1:
 RMSU=  8.68D-08    CP:  1.00D+00  1.06D+00  1.03D+00  1.73D+00  1.96D+00
                    CP:  9.96D-01
 E= -385.718197356102     Delta-E=       -0.000000000138 Rises=F Damp=F
 DIIS: error= 4.10D-07 at cycle   7 NSaved=   7.
 NSaved= 7 IEnMin= 7 EnMin= -385.718197356102     IErMin= 7 ErrMin= 4.10D-07
 ErrMax= 4.10D-07  0.00D+00 EMaxC= 1.00D-01 BMatC= 1.50D-11 BMatP= 6.52D-11
 IDIUse=1 WtCom= 1.00D+00 WtEn= 0.00D+00
 Coeff-Com:  0.593D-03-0.409D-02-0.545D-02-0.278D-01 0.299D-01 0.347D+00
 Coeff-Com:  0.660D+00
 Coeff:      0.593D-03-0.409D-02-0.545D-02-0.278D-01 0.299D-01 0.347D+00
 Coeff:      0.660D+00
 Gap=     0.208 Goal=   None    Shift=    0.000
 RMSDP=9.67D-08 MaxDP=1.95D-06 DE=-1.38D-10 OVMax= 3.42D-06

 Cycle  16  Pass 1  IDiag  1:
 RMSU=  2.55D-08    CP:  1.00D+00  1.06D+00  1.03D+00  1.72D+00  2.01D+00
                    CP:  1.06D+00  8.91D-01
 E= -385.718197356122     Delta-E=       -0.000000000020 Rises=F Damp=F
 DIIS: error= 5.15D-08 at cycle   8 NSaved=   8.
 NSaved= 8 IEnMin= 8 EnMin= -385.718197356122     IErMin= 8 ErrMin= 5.15D-08
 ErrMax= 5.15D-08  0.00D+00 EMaxC= 1.00D-01 BMatC= 4.08D-13 BMatP= 1.50D-11
 IDIUse=1 WtCom= 1.00D+00 WtEn= 0.00D+00
 Coeff-Com: -0.296D-03 0.100D-01 0.976D-02-0.275D-01-0.226D-01 0.629D-01
 Coeff-Com:  0.196D+00 0.771D+00
 Coeff:     -0.296D-03 0.100D-01 0.976D-02-0.275D-01-0.226D-01 0.629D-01
 Coeff:      0.196D+00 0.771D+00
 Gap=     0.208 Goal=   None    Shift=    0.000
 RMSDP=1.90D-08 MaxDP=4.37D-07 DE=-1.99D-11 OVMax= 7.40D-07

 Cycle  17  Pass 1  IDiag  1:
 RMSU=  7.06D-09    CP:  1.00D+00  1.06D+00  1.02D+00  1.71D+00  2.03D+00
                    CP:  1.07D+00  8.89D-01  1.01D+00
 E= -385.718197356122     Delta-E=        0.000000000000 Rises=F Damp=F
 DIIS: error= 2.17D-08 at cycle   9 NSaved=   9.
 NSaved= 9 IEnMin= 8 EnMin= -385.718197356122     IErMin= 9 ErrMin= 2.17D-08
 ErrMax= 2.17D-08  0.00D+00 EMaxC= 1.00D-01 BMatC= 7.96D-14 BMatP= 4.08D-13
 IDIUse=1 WtCom= 1.00D+00 WtEn= 0.00D+00
 Coeff-Com: -0.189D-03 0.500D-02 0.511D-02-0.105D-01-0.131D-01-0.910D-03
 Coeff-Com:  0.306D-01 0.351D+00 0.633D+00
 Coeff:     -0.189D-03 0.500D-02 0.511D-02-0.105D-01-0.131D-01-0.910D-03
 Coeff:      0.306D-01 0.351D+00 0.633D+00
 Gap=     0.208 Goal=   None    Shift=    0.000
 RMSDP=2.67D-09 MaxDP=4.32D-08 DE= 3.41D-13 OVMax= 1.22D-07

 SCF Done:  E(RCAM-B3LYP) =  -385.718197356     A.U. after   17 cycles
            NFock= 17  Conv=0.27D-08     -V/T= 2.0051
 KE= 3.837496289522D+02 PE=-1.801552905059D+03 EE= 5.785248097741D+02
 Leave Link  502 at Mon Mar 11 15:03:53 2024, MaxMem= 34359738368 cpu:             415.6 elap:              13.1
 (Enter /apps/gaussian/g16-c01-avx2/g16/l601.exe)
 Copying SCF densities to generalized density rwf, IOpCl= 0 IROHF=0.

 **********************************************************************

            Population analysis using the SCF Density.

 **********************************************************************

 Orbital symmetries:
       Occupied  (A) (A) (A) (A) (A) (A) (A) (A) (A) (A) (A) (A)
                 (A) (A) (A) (A) (A) (A) (A) (A) (A) (A) (A) (A)
                 (A) (A) (A) (A) (A) (A) (A) (A) (A) (A)
       Virtual   (A) (A) (A) (A) (A) (A) (A) (A) (A) (A) (A) (A)
                 (A) (A) (A) (A) (A) (A) (A) (A) (A) (A) (A) (A)
                 (A) (A) (A) (A) (A) (A) (A) (A) (A) (A) (A) (A)
                 (A) (A) (A) (A) (A) (A) (A) (A) (A) (A) (A) (A)
                 (A) (A) (A) (A) (A) (A) (A) (A) (A) (A) (A) (A)
                 (A) (A) (A) (A) (A) (A) (A) (A) (A) (A) (A) (A)
                 (A) (A) (A) (A) (A) (A) (A) (A) (A) (A) (A) (A)
                 (A) (A) (A) (A) (A) (A) (A) (A) (A) (A) (A) (A)
                 (A) (A) (A) (A) (A) (A) (A) (A) (A) (A) (A) (A)
                 (A) (A) (A) (A) (A) (A) (A) (A) (A) (A) (A) (A)
                 (A) (A) (A) (A) (A) (A) (A) (A) (A) (A) (A) (A)
                 (A) (A) (A) (A) (A) (A) (A) (A) (A) (A) (A) (A)
                 (A) (A) (A) (A) (A) (A) (A) (A) (A) (A) (A) (A)
                 (A) (A) (A) (A) (A) (A) (A) (A) (A) (A) (A) (A)
                 (A) (A) (A) (A) (A) (A) (A) (A) (A) (A) (A) (A)
                 (A) (A) (A) (A) (A) (A) (A) (A) (A) (A) (A) (A)
                 (A) (A) (A) (A) (A) (A) (A) (A) (A) (A) (A) (A)
 The electronic state is 1-A.
 Alpha  occ. eigenvalues --  -10.27699 -10.27280 -10.27263 -10.26395 -10.26324
 Alpha  occ. eigenvalues --  -10.26048 -10.25879 -10.24895 -10.23815 -10.23684
 Alpha  occ. eigenvalues --   -0.96255  -0.91280  -0.87662  -0.82404  -0.78560
 Alpha  occ. eigenvalues --   -0.72853  -0.69636  -0.62899  -0.62272  -0.59167
 Alpha  occ. eigenvalues --   -0.56894  -0.52537  -0.52506  -0.47774  -0.46537
 Alpha  occ. eigenvalues --   -0.46329  -0.44800  -0.43640  -0.42441  -0.40187
 Alpha  occ. eigenvalues --   -0.39793  -0.36987  -0.29093  -0.24741
 Alpha virt. eigenvalues --   -0.03968  -0.00810   0.07423   0.09674   0.11170
 Alpha virt. eigenvalues --    0.11319   0.12631   0.13309   0.14772   0.15976
 Alpha virt. eigenvalues --    0.16821   0.16978   0.17611   0.18239   0.20957
 Alpha virt. eigenvalues --    0.21606   0.22865   0.23781   0.23822   0.25101
 Alpha virt. eigenvalues --    0.26759   0.27511   0.28693   0.29296   0.29857
 Alpha virt. eigenvalues --    0.31310   0.32760   0.33314   0.33808   0.35086
 Alpha virt. eigenvalues --    0.35685   0.37152   0.38152   0.39354   0.39974
 Alpha virt. eigenvalues --    0.40235   0.40483   0.41368   0.41690   0.44373
 Alpha virt. eigenvalues --    0.45121   0.46164   0.46228   0.47510   0.48057
 Alpha virt. eigenvalues --    0.48543   0.49540   0.49889   0.50784   0.51463
 Alpha virt. eigenvalues --    0.53499   0.55276   0.55778   0.56407   0.58512
 Alpha virt. eigenvalues --    0.61051   0.61797   0.63575   0.67628   0.70478
 Alpha virt. eigenvalues --    0.71503   0.72920   0.74226   0.75688   0.76858
 Alpha virt. eigenvalues --    0.78242   0.81366   0.81755   0.82688   0.83662
 Alpha virt. eigenvalues --    0.87970   0.88913   1.22169   1.23520   1.26755
 Alpha virt. eigenvalues --    1.27922   1.28687   1.28885   1.32258   1.32363
 Alpha virt. eigenvalues --    1.32780   1.33845   1.35057   1.35240   1.35689
 Alpha virt. eigenvalues --    1.37780   1.38813   1.38880   1.39522   1.43359
 Alpha virt. eigenvalues --    1.43937   1.46588   1.46794   1.48403   1.48815
 Alpha virt. eigenvalues --    1.49413   1.49735   1.50468   1.50601   1.53029
 Alpha virt. eigenvalues --    1.53258   1.53845   1.54521   1.55184   1.57430
 Alpha virt. eigenvalues --    1.57472   1.57608   1.60919   1.61728   1.64885
 Alpha virt. eigenvalues --    1.66209   1.69973   1.72887   1.73857   1.75227
 Alpha virt. eigenvalues --    1.78759   1.81678   1.83294   1.84342   1.85416
 Alpha virt. eigenvalues --    1.86189   1.87367   1.87855   1.90486   1.91817
 Alpha virt. eigenvalues --    1.92594   1.93171   1.94607   1.95088   1.97003
 Alpha virt. eigenvalues --    1.99568   2.01445   2.02717   2.03657   2.04846
 Alpha virt. eigenvalues --    2.06162   2.06689   2.10147   2.13045   2.15649
 Alpha virt. eigenvalues --    2.20333   2.21391   2.23697   2.28288   2.28688
 Alpha virt. eigenvalues --    2.31821   2.33551   2.36656   2.41402   2.41503
 Alpha virt. eigenvalues --    2.43726   2.44830   2.50576   2.50928   2.52913
 Alpha virt. eigenvalues --    2.54586   2.56075   2.57827   2.61348   2.62695
 Alpha virt. eigenvalues --    2.63106   2.65188   2.65962   2.68270   2.68686
 Alpha virt. eigenvalues --    2.70107   2.73629   2.76797   2.79471   2.81050
 Alpha virt. eigenvalues --    2.81630   2.86056   2.86440   2.91591   2.91863
 Alpha virt. eigenvalues --    3.04024   3.04956   3.07894   3.08638   3.09976
 Alpha virt. eigenvalues --    3.14039   3.16335   3.21107   3.24011   3.26272
 Alpha virt. eigenvalues --    3.27776   3.35938   3.36583   3.40812   3.43970
 Alpha virt. eigenvalues --    3.67351   3.68540   3.72482   3.80347  21.28000
 Alpha virt. eigenvalues --   21.60177  21.80254  21.86680  21.94791  22.10692
 Alpha virt. eigenvalues --   22.17549  22.18777  22.30989  22.31287
          Condensed to atoms (all electrons):
               1          2          3          4          5          6
     1  C    4.948487   0.467327  -0.001336   0.383610  -0.047400  -0.016797
     2  C    0.467327   5.132392   0.305535   0.007984   0.011782  -0.060264
     3  C   -0.001336   0.305535   5.227553  -0.072296   0.372792  -0.017506
     4  C    0.383610   0.007984  -0.072296   5.114813  -0.002374   0.434001
     5  C   -0.047400   0.011782   0.372792  -0.002374   5.394506  -0.117355
     6  C   -0.016797  -0.060264  -0.017506   0.434001  -0.117355   5.155772
     7  C   -0.047281  -0.000504  -0.144209  -0.009160   0.249201   0.363975
     8  H    0.399632  -0.042616   0.016088  -0.051144  -0.001586   0.016537
     9  H   -0.040600   0.395777  -0.042852   0.013257   0.016521  -0.001213
    10  H    0.011875  -0.060016   0.379267  -0.000973  -0.013311   0.000027
    11  H   -0.052451   0.014560  -0.001297   0.395330   0.000289  -0.030803
    12  H    0.012285  -0.001540   0.000646  -0.053942   0.020093   0.377110
    13  C   -0.000373   0.024069  -0.122266   0.003673   0.456505   0.034703
    14  H   -0.000338   0.001448  -0.016934   0.000407  -0.045912  -0.001412
    15  C    0.000002  -0.004765   0.010896  -0.004909  -0.019942   0.010064
    16  H   -0.000047   0.000108  -0.001503   0.000104   0.012423  -0.001139
    17  C    0.003646   0.001423   0.041136   0.019129  -0.178850  -0.118719
    18  H   -0.000281   0.000361  -0.001583   0.001927   0.018680  -0.016883
               7          8          9         10         11         12
     1  C   -0.047281   0.399632  -0.040600   0.011875  -0.052451   0.012285
     2  C   -0.000504  -0.042616   0.395777  -0.060016   0.014560  -0.001540
     3  C   -0.144209   0.016088  -0.042852   0.379267  -0.001297   0.000646
     4  C   -0.009160  -0.051144   0.013257  -0.000973   0.395330  -0.053942
     5  C    0.249201  -0.001586   0.016521  -0.013311   0.000289   0.020093
     6  C    0.363975   0.016537  -0.001213   0.000027  -0.030803   0.377110
     7  C    5.353644  -0.001450   0.000469   0.019224   0.015165  -0.017665
     8  H   -0.001450   0.550690  -0.008987  -0.000231  -0.006825  -0.000222
     9  H    0.000469  -0.008987   0.550168  -0.004790  -0.000218   0.000017
    10  H    0.019224  -0.000231  -0.004790   0.552819   0.000007   0.000018
    11  H    0.015165  -0.006825  -0.000218   0.000007   0.553190  -0.007662
    12  H   -0.017665  -0.000222   0.000017   0.000018  -0.007662   0.557936
    13  C   -0.176859  -0.000048  -0.000811  -0.017643  -0.000108  -0.002517
    14  H    0.017247  -0.000003   0.000030   0.002609   0.000000  -0.000012
    15  C   -0.005230   0.000019   0.000133   0.003522   0.000141   0.002821
    16  H    0.012505  -0.000000   0.000000  -0.000012   0.000001   0.000005
    17  C    0.519614  -0.000061  -0.000143  -0.002253  -0.001095  -0.013936
    18  H   -0.044378  -0.000003   0.000000  -0.000011   0.000001   0.002313
              13         14         15         16         17         18
     1  C   -0.000373  -0.000338   0.000002  -0.000047   0.003646  -0.000281
     2  C    0.024069   0.001448  -0.004765   0.000108   0.001423   0.000361
     3  C   -0.122266  -0.016934   0.010896  -0.001503   0.041136  -0.001583
     4  C    0.003673   0.000407  -0.004909   0.000104   0.019129   0.001927
     5  C    0.456505  -0.045912  -0.019942   0.012423  -0.178850   0.018680
     6  C    0.034703  -0.001412   0.010064  -0.001139  -0.118719  -0.016883
     7  C   -0.176859   0.017247  -0.005230   0.012505   0.519614  -0.044378
     8  H   -0.000048  -0.000003   0.000019  -0.000000  -0.000061  -0.000003
     9  H   -0.000811   0.000030   0.000133   0.000000  -0.000143   0.000000
    10  H   -0.017643   0.002609   0.003522  -0.000012  -0.002253  -0.000011
    11  H   -0.000108   0.000000   0.000141   0.000001  -0.001095   0.000001
    12  H   -0.002517  -0.000012   0.002821   0.000005  -0.013936   0.002313
    13  C    5.144737   0.406040   0.469469  -0.043099  -0.025173   0.012697
    14  H    0.406040   0.558623  -0.046533  -0.002566   0.014232  -0.000133
    15  C    0.469469  -0.046533   4.996090   0.404386   0.357738  -0.050278
    16  H   -0.043099  -0.002566   0.404386   0.545434  -0.049588  -0.000647
    17  C   -0.025173   0.014232   0.357738  -0.049588   5.155670   0.406038
    18  H    0.012697  -0.000133  -0.050278  -0.000647   0.406038   0.557886
 Mulliken charges:
               1
     1  C   -0.019960
     2  C   -0.193062
     3  C    0.067869
     4  C   -0.179437
     5  C   -0.126061
     6  C   -0.010098
     7  C   -0.104307
     8  H    0.130209
     9  H    0.123240
    10  H    0.129873
    11  H    0.121775
    12  H    0.124250
    13  C   -0.162996
    14  H    0.113208
    15  C   -0.123623
    16  H    0.123636
    17  C   -0.128810
    18  H    0.114295
 Sum of Mulliken charges =  -0.00000
 Mulliken charges with hydrogens summed into heavy atoms:
               1
     1  C    0.110249
     2  C   -0.069822
     3  C    0.197742
     4  C   -0.057662
     5  C   -0.126061
     6  C    0.114151
     7  C   -0.104307
    13  C   -0.049788
    15  C    0.000013
    17  C   -0.014514
 Electronic spatial extent (au):  <R**2>=           1310.5336
 Charge=             -0.0000 electrons
 Dipole moment (field-independent basis, Debye):
    X=              1.2725    Y=             -0.1336    Z=              0.0001  Tot=              1.2795
 Quadrupole moment (field-independent basis, Debye-Ang):
   XX=            -52.6900   YY=            -51.4469   ZZ=            -65.0904
   XY=             -0.3477   XZ=              0.0007   YZ=             -0.0005
 Traceless Quadrupole moment (field-independent basis, Debye-Ang):
   XX=              3.7191   YY=              4.9622   ZZ=             -8.6813
   XY=             -0.3477   XZ=              0.0007   YZ=             -0.0005
 Octapole moment (field-independent basis, Debye-Ang**2):
  XXX=              7.1977  YYY=             -1.4063  ZZZ=             -0.0000  XYY=              2.4950
  XXY=              1.2982  XXZ=              0.0093  XZZ=              1.5870  YZZ=             -0.1213
  YYZ=             -0.0036  XYZ=              0.0074
 Hexadecapole moment (field-independent basis, Debye-Ang**3):
 XXXX=          -1088.4910 YYYY=           -519.6409 ZZZZ=            -78.9117 XXXY=             -2.3814
 XXXZ=              0.0159 YYYX=             -1.8956 YYYZ=             -0.0051 ZZZX=              0.0012
 ZZZY=              0.0004 XXYY=           -277.4341 XXZZ=           -243.0508 YYZZ=           -123.1567
 XXYZ=             -0.0006 YYXZ=             -0.0047 ZZXY=             -0.4121
 N-N= 4.535602689767D+02 E-N=-1.801552904151D+03  KE= 3.837496289522D+02
 No NMR shielding tensors so no spin-rotation constants.
 Leave Link  601 at Mon Mar 11 15:03:54 2024, MaxMem= 34359738368 cpu:               3.7 elap:               0.2
 (Enter /apps/gaussian/g16-c01-avx2/g16/l701.exe)
 ... and contract with generalized density number  0.
 Compute integral first derivatives.
 Leave Link  701 at Mon Mar 11 15:03:54 2024, MaxMem= 34359738368 cpu:               4.4 elap:               0.2
 (Enter /apps/gaussian/g16-c01-avx2/g16/l702.exe)
 L702 exits ... SP integral derivatives will be done elsewhere.
 Leave Link  702 at Mon Mar 11 15:03:55 2024, MaxMem= 34359738368 cpu:               0.3 elap:               0.0
 (Enter /apps/gaussian/g16-c01-avx2/g16/l703.exe)
 Integral derivatives from FoFJK, PRISM(SPDF).
 Compute integral first derivatives, UseDBF=F ICtDFT=           0.
 Calling FoFJK, ICntrl=      2127 FMM=F ISym2X=0 I1Cent= 0 IOpClX= 0 NMat=1 NMatS=1 NMatT=0.
 FoFJK:  IHMeth= 1 ICntrl=    2127 DoSepK=T KAlg= 0 I1Cent=           0 FoldK=F
 IRaf=         1 NMat=       1 IRICut=       1 DoRegI=T DoRafI=F ISym2E= 0 IDoP0=0 IntGTp=1.
 FoFCou: FMM=F IPFlag=           0 FMFlag=      100000 FMFlg1=         800
         NFxFlg=           0 DoJE=F BraDBF=F KetDBF=F FulRan=T
         wScrn=  0.000000 ICntrl=      2527 IOpCl=  0 I1Cent=           0 NGrid=           0
         NMat0=    1 NMatS0=      1 NMatT0=    0 NMatD0=    1 NMtDS0=    0 NMtDT0=    0
 Symmetry not used in FoFCou.
 Leave Link  703 at Mon Mar 11 15:03:58 2024, MaxMem= 34359738368 cpu:              70.7 elap:               2.2
 (Enter /apps/gaussian/g16-c01-avx2/g16/l716.exe)
 Dipole        = 5.00628637D-01-5.25633958D-02 4.51460598D-05
 ***** Axes restored to original set *****
 -------------------------------------------------------------------
 Center     Atomic                   Forces (Hartrees/Bohr)
 Number     Number              X              Y              Z
 -------------------------------------------------------------------
      1        6          -0.016043788   -0.008448130    0.000004713
      2        6           0.018528576   -0.012001089   -0.000021573
      3        6           0.007907332   -0.013547442   -0.000008992
      4        6          -0.015411391   -0.015642848    0.000003124
      5        6           0.018130013    0.029098731   -0.000004292
      6        6          -0.002626254    0.019124374    0.000001082
      7        6          -0.005536561    0.010168993    0.000011820
      8        1           0.008274988    0.013754084    0.000016083
      9        1          -0.008293372    0.013095842    0.000000798
     10        1          -0.014450832    0.005227305    0.000004041
     11        1           0.014711297    0.005288322   -0.000000464
     12        1           0.011182548   -0.010284388   -0.000015864
     13        6          -0.011695471   -0.010977833    0.000009147
     14        1          -0.005522248    0.001713485    0.000014659
     15        6          -0.015226412   -0.011053816   -0.000001938
     16        1          -0.001063655   -0.006475688   -0.000002195
     17        6           0.014544077   -0.003499491   -0.000000721
     18        1           0.002591153   -0.005540409   -0.000009429
 -------------------------------------------------------------------
 Cartesian Forces:  Max     0.029098731 RMS     0.009985929
 Leave Link  716 at Mon Mar 11 15:03:58 2024, MaxMem= 34359738368 cpu:               0.4 elap:               0.0
 (Enter /apps/gaussian/g16-c01-avx2/g16/l103.exe)

 GradGradGradGradGradGradGradGradGradGradGradGradGradGradGradGradGradGrad
 Berny optimization.
 FormGI is forming the generalized inverse of G from B-inverse, IUseBI=4.
 Internal  Forces:  Max     0.025514480 RMS     0.005637249
 Search for a local minimum.
 Step number   1 out of a maximum of  103
 All quantities printed in internal units (Hartrees-Bohrs-Radians)
 RMS Force = .56372D-02 SwitMx=.10000D-02 MixMth= 1
 Mixed Optimization -- RFO/linear search
 Second derivative matrix not updated -- first step.
 ITU=  0
     Eigenvalues ---    0.01469   0.01668   0.01785   0.01826   0.01876
     Eigenvalues ---    0.01886   0.02047   0.02073   0.02138   0.02252
     Eigenvalues ---    0.02264   0.02275   0.02283   0.02413   0.02504
     Eigenvalues ---    0.16000   0.16000   0.16000   0.16000   0.16000
     Eigenvalues ---    0.16000   0.16000   0.16000   0.22000   0.22000
     Eigenvalues ---    0.22201   0.22930   0.24027   0.24743   0.31870
     Eigenvalues ---    0.32604   0.32630   0.32656   0.32758   0.32777
     Eigenvalues ---    0.34902   0.35075   0.35082   0.35322   0.38143
     Eigenvalues ---    0.41508   0.42113   0.43493   0.44222   0.47824
     Eigenvalues ---    0.51219   0.51690   0.53330
 RFO step:  Lambda=-8.10513261D-03 EMin= 1.46869170D-02
 Linear search not attempted -- first point.
 Iteration  1 RMS(Cart)=  0.01979905 RMS(Int)=  0.00008266
 Iteration  2 RMS(Cart)=  0.00011259 RMS(Int)=  0.00001316
 Iteration  3 RMS(Cart)=  0.00000001 RMS(Int)=  0.00001316
 ITry= 1 IFail=0 DXMaxC= 8.31D-02 DCOld= 1.00D+10 DXMaxT= 3.00D-01 DXLimC= 3.00D+00 Rises=F
 Variable       Old X    -DE/DX   Delta X   Delta X   Delta X     New X
                                 (Linear)    (Quad)   (Total)
    R1        2.57141   0.00568   0.00000   0.01069   0.01069   2.58209
    R2        2.67542  -0.00450   0.00000  -0.01021  -0.01021   2.66521
    R3        2.09752  -0.01600   0.00000  -0.04787  -0.04787   2.04965
    R4        2.67543  -0.00464   0.00000  -0.01046  -0.01046   2.66497
    R5        2.09444  -0.01543   0.00000  -0.04593  -0.04593   2.04852
    R6        2.56350   0.00543   0.00000   0.00998   0.00998   2.57348
    R7        2.09659  -0.01528   0.00000  -0.04566  -0.04566   2.05093
    R8        2.56983   0.00666   0.00000   0.01233   0.01233   2.58216
    R9        2.09479  -0.01559   0.00000  -0.04644  -0.04644   2.04835
   R10        2.80490  -0.00101   0.00000  -0.00149  -0.00152   2.80338
   R11        2.75436  -0.02551   0.00000  -0.06653  -0.06653   2.68782
   R12        2.66680  -0.00632   0.00000  -0.01427  -0.01427   2.65252
   R13        2.09706  -0.01515   0.00000  -0.04529  -0.04529   2.05177
   R14        2.63021  -0.01565   0.00000  -0.03248  -0.03251   2.59770
   R15        2.05543  -0.00571   0.00000  -0.01590  -0.01590   2.03952
   R16        2.60917  -0.01012   0.00000  -0.02115  -0.02111   2.58806
   R17        2.05835  -0.00636   0.00000  -0.01781  -0.01781   2.04055
   R18        2.72988  -0.01862   0.00000  -0.04792  -0.04790   2.68199
   R19        2.05553  -0.00575   0.00000  -0.01602  -0.01602   2.03951
    A1        2.26411   0.00059   0.00000   0.00315   0.00315   2.26725
    A2        2.02870  -0.00170   0.00000  -0.00995  -0.00995   2.01875
    A3        1.99038   0.00111   0.00000   0.00680   0.00680   1.99718
    A4        2.24943  -0.00158   0.00000  -0.00621  -0.00621   2.24321
    A5        2.03682  -0.00081   0.00000  -0.00639  -0.00639   2.03043
    A6        1.99694   0.00239   0.00000   0.01260   0.01260   2.00954
    A7        2.23442   0.00225   0.00000   0.01038   0.01038   2.24480
    A8        2.00788   0.00057   0.00000   0.00490   0.00491   2.01279
    A9        2.04088  -0.00282   0.00000  -0.01529  -0.01528   2.02560
   A10        2.25529  -0.00137   0.00000  -0.00576  -0.00577   2.24952
   A11        1.99407   0.00191   0.00000   0.01018   0.01019   2.00426
   A12        2.03383  -0.00055   0.00000  -0.00443  -0.00442   2.02941
   A13        2.25338  -0.00241   0.00000  -0.01055  -0.01054   2.24284
   A14        2.18351   0.00098   0.00000   0.00244   0.00246   2.18597
   A15        1.84630   0.00143   0.00000   0.00810   0.00807   1.85437
   A16        2.24310   0.00126   0.00000   0.00544   0.00543   2.24853
   A17        2.04326  -0.00187   0.00000  -0.01011  -0.01011   2.03315
   A18        1.99682   0.00061   0.00000   0.00468   0.00468   2.00150
   A19        2.20824   0.00126   0.00000   0.00354   0.00356   2.21180
   A20        1.87736  -0.00280   0.00000  -0.00840  -0.00845   1.86891
   A21        2.19758   0.00154   0.00000   0.00486   0.00489   2.20247
   A22        2.15899   0.00196   0.00000   0.01055   0.01053   2.16952
   A23        1.89712  -0.00202   0.00000  -0.00987  -0.00983   1.88728
   A24        2.22708   0.00007   0.00000  -0.00068  -0.00070   2.22638
   A25        2.21399  -0.00399   0.00000  -0.01835  -0.01838   2.19561
   A26        1.90442   0.00463   0.00000   0.01684   0.01689   1.92131
   A27        2.16478  -0.00065   0.00000   0.00152   0.00149   2.16627
   A28        1.89959  -0.00124   0.00000  -0.00667  -0.00668   1.89291
   A29        2.20885  -0.00152   0.00000  -0.00941  -0.00941   2.19944
   A30        2.17475   0.00276   0.00000   0.01608   0.01608   2.19083
    D1       -0.00074   0.00001   0.00000   0.00034   0.00034  -0.00040
    D2        3.14119   0.00000   0.00000   0.00015   0.00015   3.14134
    D3        3.14101   0.00001   0.00000   0.00028   0.00028   3.14129
    D4       -0.00024   0.00000   0.00000   0.00009   0.00009  -0.00015
    D5        0.00009  -0.00000   0.00000  -0.00006  -0.00006   0.00003
    D6       -3.14128  -0.00000   0.00000  -0.00016  -0.00016  -3.14143
    D7        3.14153  -0.00000   0.00000  -0.00001  -0.00000   3.14153
    D8        0.00016  -0.00000   0.00000  -0.00010  -0.00010   0.00006
    D9        0.00025  -0.00000   0.00000  -0.00012  -0.00012   0.00013
   D10       -3.14118  -0.00001   0.00000  -0.00021  -0.00021  -3.14139
   D11        3.14151   0.00000   0.00000   0.00006   0.00006   3.14157
   D12        0.00008  -0.00000   0.00000  -0.00003  -0.00003   0.00004
   D13        0.00063  -0.00001   0.00000  -0.00023  -0.00023   0.00040
   D14       -3.14132  -0.00001   0.00000  -0.00024  -0.00024  -3.14156
   D15       -3.14112  -0.00000   0.00000  -0.00014  -0.00014  -3.14126
   D16        0.00011  -0.00000   0.00000  -0.00014  -0.00014  -0.00004
   D17        0.00062  -0.00001   0.00000  -0.00028  -0.00028   0.00034
   D18       -3.14124  -0.00000   0.00000  -0.00012  -0.00012  -3.14136
   D19       -3.14120  -0.00001   0.00000  -0.00018  -0.00019  -3.14138
   D20        0.00013  -0.00000   0.00000  -0.00002  -0.00003   0.00010
   D21       -0.00059   0.00000   0.00000   0.00017   0.00017  -0.00042
   D22        3.14114   0.00000   0.00000   0.00019   0.00019   3.14133
   D23        3.14131   0.00000   0.00000   0.00018   0.00018   3.14149
   D24       -0.00014   0.00000   0.00000   0.00020   0.00020   0.00006
   D25        0.00054  -0.00000   0.00000  -0.00020  -0.00020   0.00034
   D26       -3.14117  -0.00001   0.00000  -0.00023  -0.00023  -3.14139
   D27       -3.14135  -0.00001   0.00000  -0.00021  -0.00021  -3.14155
   D28        0.00014  -0.00001   0.00000  -0.00024  -0.00024  -0.00010
   D29       -0.00028   0.00001   0.00000   0.00019   0.00019  -0.00009
   D30        3.14114   0.00001   0.00000   0.00017   0.00017   3.14132
   D31        3.14157   0.00000   0.00000   0.00004   0.00004  -3.14158
   D32       -0.00019   0.00000   0.00000   0.00002   0.00002  -0.00017
   D33        0.00010  -0.00000   0.00000  -0.00009  -0.00009   0.00001
   D34       -3.14143  -0.00000   0.00000  -0.00012  -0.00012  -3.14156
   D35       -3.14136  -0.00000   0.00000  -0.00007  -0.00007  -3.14143
   D36        0.00030  -0.00000   0.00000  -0.00011  -0.00011   0.00019
   D37        3.14158   0.00000   0.00000   0.00007   0.00007  -3.14153
   D38       -0.00008   0.00000   0.00000   0.00019   0.00019   0.00011
   D39       -0.00013   0.00000   0.00000   0.00004   0.00005  -0.00009
   D40        3.14140   0.00000   0.00000   0.00016   0.00016   3.14156
   D41       -0.00001  -0.00000   0.00000  -0.00006  -0.00006  -0.00008
   D42        3.14152  -0.00000   0.00000  -0.00003  -0.00003   3.14149
   D43        3.14152   0.00000   0.00000   0.00005   0.00005   3.14157
   D44       -0.00013   0.00000   0.00000   0.00008   0.00008  -0.00005
         Item               Value     Threshold  Converged?
 Maximum Force            0.025514     0.000450     NO 
 RMS     Force            0.005637     0.000300     NO 
 Maximum Displacement     0.083061     0.001800     NO 
 RMS     Displacement     0.019804     0.001200     NO 
 Predicted change in Energy=-4.146441D-03
 Lowest energy point so far.  Saving SCF results.
 GradGradGradGradGradGradGradGradGradGradGradGradGradGradGradGradGradGrad

 Leave Link  103 at Mon Mar 11 15:03:58 2024, MaxMem= 34359738368 cpu:               0.9 elap:               0.0
 (Enter /apps/gaussian/g16-c01-avx2/g16/l202.exe)
                          Input orientation:                          
 ---------------------------------------------------------------------
 Center     Atomic      Atomic             Coordinates (Angstroms)
 Number     Number       Type             X           Y           Z
 ---------------------------------------------------------------------
      1          6           0       -1.583678    0.646587   -0.020632
      2          6           0       -0.217294    0.644732   -0.020934
      3          6           0        0.662614    1.746798   -0.020945
      4          6           0       -2.486966    1.729735   -0.019816
      5          6           0        0.361410    3.074897   -0.020517
      6          6           0       -2.219558    3.069733   -0.019145
      7          6           0       -0.975018    3.718861   -0.019460
      8          1           0       -2.054783   -0.330390   -0.020988
      9          1           0        0.262284   -0.327442   -0.021352
     10          1           0        1.718896    1.497490   -0.021414
     11          1           0       -3.534018    1.449359   -0.019589
     12          1           0       -3.077738    3.734847   -0.018343
     13          6           0        1.312675    4.132315   -0.020596
     14          1           0        2.382285    3.988254   -0.021311
     15          6           0        0.630149    5.319664   -0.019807
     16          1           0        1.074661    6.303737   -0.019712
     17          6           0       -0.768350    5.077879   -0.019050
     18          1           0       -1.535944    5.836566   -0.018258
 ---------------------------------------------------------------------
                    Distance matrix (angstroms):
                    1          2          3          4          5
     1  C    0.000000
     2  C    1.366385   0.000000
     3  C    2.501258   1.410243   0.000000
     4  C    1.410369   2.515680   3.149627   0.000000
     5  C    3.111279   2.498119   1.361827   3.150033   0.000000
     6  C    2.505192   3.144789   3.171290   1.366419   2.580974
     7  C    3.131986   3.166136   2.563372   2.498521   1.483486
     8  H    1.084630   2.080199   3.420373   2.104970   4.175400
     9  H    2.087177   1.084028   2.112518   3.433709   3.403782
    10  H    3.410430   2.115663   1.085305   4.212270   2.081101
    11  H    2.109092   3.412929   4.207159   1.083941   4.220987
    12  H    3.430681   4.210814   4.235868   2.090331   3.501896
    13  C    4.532015   3.808417   2.472503   4.495516   1.422335
    14  H    5.186097   4.235204   2.825136   5.367543   2.217692
    15  C    5.170946   4.751121   3.573015   4.754366   2.260797
    16  H    6.250609   5.804609   4.575531   5.797127   3.306681
    17  C    4.505676   4.467265   3.625433   3.763470   2.299629
    18  H    5.190199   5.356676   4.643261   4.215507   3.350638
                    6          7          8          9         10
     6  C    0.000000
     7  C    1.403655   0.000000
     8  H    3.404114   4.190743   0.000000
     9  H    4.207178   4.231251   2.317069   0.000000
    10  H    4.240681   3.491657   4.193066   2.334972   0.000000
    11  H    2.086485   3.420398   2.314226   4.191531   5.253135
    12  H    1.085748   2.102781   4.191968   5.259082   5.292776
    13  C    3.688598   2.324755   5.590662   4.581785   2.665955
    14  H    4.692616   3.368094   6.191789   4.808288   2.577594
    15  C    3.630843   2.266965   6.255555   5.659076   3.974216
    16  H    4.616347   3.298904   7.335193   6.680755   4.849232
    17  C    2.477631   1.374643   5.559162   5.502700   4.359539
    18  H    2.850034   2.190734   6.188743   6.420952   5.424166
                   11         12         13         14         15
    11  H    0.000000
    12  H    2.330590   0.000000
    13  C    5.539737   4.408368   0.000000
    14  H    6.438061   5.465901   1.079268   0.000000
    15  C    5.685028   4.032378   1.369541   2.200600   0.000000
    16  H    6.693647   4.882787   2.184428   2.659200   1.079810
    17  C    4.562355   2.671518   2.285773   3.333735   1.419246
    18  H    4.820776   2.606598   3.319504   4.332296   2.226914
                   16         17         18
    16  H    0.000000
    17  C    2.213462   0.000000
    18  H    2.652076   1.079263   0.000000
 Stoichiometry    C10H8
 Framework group  C1[X(C10H8)]
 Deg. of freedom    48
 Full point group                 C1      NOp   1
 RotChk:  IX=0 Diff= 1.38D-03
 Largest Abelian subgroup         C1      NOp   1
 Largest concise Abelian subgroup C1      NOp   1
                         Standard orientation:                         
 ---------------------------------------------------------------------
 Center     Atomic      Atomic             Coordinates (Angstroms)
 Number     Number       Type             X           Y           Z
 ---------------------------------------------------------------------
      1          6           0        2.483639   -0.032946    0.000157
      2          6           0        1.892758   -1.264964   -0.000163
      3          6           0        0.518131   -1.579902   -0.000132
      4          6           0        1.899364    1.250707    0.000164
      5          6           0       -0.547965   -0.732546    0.000082
      6          6           0        0.575960    1.590861   -0.000118
      7          6           0       -0.548664    0.750940   -0.000122
      8          1           0        3.568269   -0.032125    0.000356
      9          1           0        2.560784   -2.118697   -0.000332
     10          1           0        0.284704   -2.639807   -0.000238
     11          1           0        2.606072    2.072590    0.000307
     12          1           0        0.348804    2.652581   -0.000277
     13          6           0       -1.913306   -1.131143    0.000131
     14          1           0       -2.247348   -2.157416    0.000304
     15          6           0       -2.687211   -0.001225    0.000104
     16          1           0       -3.766702    0.024993    0.000181
     17          6           0       -1.862866    1.154073   -0.000110
     18          1           0       -2.213622    2.174748   -0.000264
 ---------------------------------------------------------------------
 Rotational constants (GHZ):           2.8832915           1.2705821           0.8819379
 Leave Link  202 at Mon Mar 11 15:03:58 2024, MaxMem= 34359738368 cpu:               0.1 elap:               0.0
 (Enter /apps/gaussian/g16-c01-avx2/g16/l301.exe)
 Standard basis: TZVP (5D, 7F)
 Ernie: Thresh=  0.10000D-02 Tol=  0.10000D-05 Strict=F.
 There are   248 symmetry adapted cartesian basis functions of A   symmetry.
 There are   238 symmetry adapted basis functions of A   symmetry.
   238 basis functions,   414 primitive gaussians,   248 cartesian basis functions
    34 alpha electrons       34 beta electrons
       nuclear repulsion energy       456.5372120511 Hartrees.
 IExCor=20419 DFT=T Ex+Corr=CAM-B3LYP ExCW=0 ScaHFX=  1.000000
 ScaDFX=  1.000000  1.000000  1.000000  0.810000 ScalE2=  1.000000  1.000000
 IRadAn=      5 IRanWt=     -1 IRanGd=            0 ICorTp=0 IEmpDi=  4
 HFx  wShort=  0.000000 wLong=  0.330000 cFull=  0.190000 cShort=  0.000000 cLong=  0.460000
 DFx  wShort=  0.000000 wLong=  0.330000 cFull=  0.190000 cShort=  0.000000 cLong=  0.460000
 NAtoms=   18 NActive=   18 NUniq=   18 SFac= 1.00D+00 NAtFMM=   60 NAOKFM=F Big=F
 Integral buffers will be    131072 words long.
 Raffenetti 2 integral format.
 Two-electron integral symmetry is turned on.
 Leave Link  301 at Mon Mar 11 15:03:58 2024, MaxMem= 34359738368 cpu:               0.8 elap:               0.0
 (Enter /apps/gaussian/g16-c01-avx2/g16/l302.exe)
 NPDir=0 NMtPBC=     1 NCelOv=     1 NCel=       1 NClECP=     1 NCelD=      1
         NCelK=      1 NCelE2=     1 NClLst=     1 CellRange=     0.0.
 One-electron integrals computed using PRISM.
 One-electron integral symmetry used in STVInt
 NBasis=   238 RedAO= T EigKep=  1.67D-05  NBF=   238
 NBsUse=   238 1.00D-06 EigRej= -1.00D+00 NBFU=   238
 Precomputing XC quadrature grid using
 IXCGrd= 4 IRadAn=           5 IRanWt=          -1 IRanGd=           0 AccXCQ= 0.00D+00.
 Generated NRdTot=       0 NPtTot=           0 NUsed=           0 NTot=          32
 NSgBfM=   246   246   246   246   246 MxSgAt=    18 MxSgA2=    18.
 Leave Link  302 at Mon Mar 11 15:03:58 2024, MaxMem= 34359738368 cpu:               4.6 elap:               0.2
 (Enter /apps/gaussian/g16-c01-avx2/g16/l303.exe)
 DipDrv:  MaxL=1.
 Leave Link  303 at Mon Mar 11 15:03:59 2024, MaxMem= 34359738368 cpu:               0.8 elap:               0.0
 (Enter /apps/gaussian/g16-c01-avx2/g16/l401.exe)
 Initial guess from the checkpoint file:  "Azulene3-1.chk"
 B after Tr=    -0.000000    0.000000   -0.000000
         Rot=    1.000000    0.000000   -0.000000   -0.000471 Ang=   0.05 deg.
 Guess basis will be translated and rotated to current coordinates.
 JPrj=2 DoOrth=T DoCkMO=T.
 Generating alternative initial guess.
 ExpMin= 9.52D-02 ExpMax= 1.36D+04 ExpMxC= 4.63D+02 IAcc=3 IRadAn=         5 AccDes= 0.00D+00
 Harris functional with IExCor=20419 and IRadAn=       5 diagonalized for initial guess.
 HarFok:  IExCor=20419 AccDes= 0.00D+00 IRadAn=         5 IDoV= 1 UseB2=F ITyADJ=14
 ICtDFT=  3500011 ScaDFX=  1.000000  1.000000  1.000000  1.000000
 FoFCou: FMM=F IPFlag=           0 FMFlag=      100000 FMFlg1=           0
         NFxFlg=           0 DoJE=T BraDBF=F KetDBF=T FulRan=T
         wScrn=  0.000000 ICntrl=       500 IOpCl=  0 I1Cent=   200000004 NGrid=           0
         NMat0=    1 NMatS0=      1 NMatT0=    0 NMatD0=    1 NMtDS0=    0 NMtDT0=    0
 Petite list used in FoFCou.
 Harris En= -369.888980185863    
 Leave Link  401 at Mon Mar 11 15:03:59 2024, MaxMem= 34359738368 cpu:              14.5 elap:               0.5
 (Enter /apps/gaussian/g16-c01-avx2/g16/l502.exe)
 Integral symmetry usage will be decided dynamically.
 Closed shell SCF:
 Using DIIS extrapolation, IDIIS=  1040.
 NGot= 34359738368 LenX= 34359604474 LenY= 34359542529
 Requested convergence on RMS density matrix=1.00D-08 within 128 cycles.
 Requested convergence on MAX density matrix=1.00D-06.
 Requested convergence on             energy=1.00D-06.
 No special actions if energy rises.
 Fock matrices will be formed incrementally for  20 cycles.
 Integral accuracy reduced to 1.0D-05 until final iterations.

 Cycle   1  Pass 0  IDiag  1:
 FoFJK:  IHMeth= 1 ICntrl=       0 DoSepK=T KAlg= 0 I1Cent=           0 FoldK=F
 IRaf=         1 NMat=       1 IRICut=       1 DoRegI=T DoRafI=F ISym2E= 0 IDoP0=0 IntGTp=1.
 FoFCou: FMM=F IPFlag=           0 FMFlag=      100000 FMFlg1=           0
         NFxFlg=           0 DoJE=T BraDBF=F KetDBF=F FulRan=T
         wScrn=  0.000000 ICntrl=       500 IOpCl=  0 I1Cent=           0 NGrid=           0
         NMat0=    1 NMatS0=      1 NMatT0=    0 NMatD0=    1 NMtDS0=    0 NMtDT0=    0
 Symmetry not used in FoFCou.
 E= -385.721191920203    
 DIIS: error= 1.49D-03 at cycle   1 NSaved=   1.
 NSaved= 1 IEnMin= 1 EnMin= -385.721191920203     IErMin= 1 ErrMin= 1.49D-03
 ErrMax= 1.49D-03  0.00D+00 EMaxC= 1.00D-01 BMatC= 1.16D-03 BMatP= 1.16D-03
 IDIUse=3 WtCom= 9.85D-01 WtEn= 1.49D-02
 Coeff-Com:  0.100D+01
 Coeff-En:   0.100D+01
 Coeff:      0.100D+01
 Gap=     0.696 Goal=   None    Shift=    0.000
 GapD=    0.696 DampG=2.000 DampE=1.000 DampFc=2.0000 IDamp=-1.
 RMSDP=3.37D-04 MaxDP=6.00D-03              OVMax= 1.31D-02

 Cycle   2  Pass 0  IDiag  1:
 RMSU=  3.35D-04    CP:  1.00D+00
 E= -385.722371255347     Delta-E=       -0.001179335144 Rises=F Damp=F
 DIIS: error= 7.38D-04 at cycle   2 NSaved=   2.
 NSaved= 2 IEnMin= 2 EnMin= -385.722371255347     IErMin= 2 ErrMin= 7.38D-04
 ErrMax= 7.38D-04  0.00D+00 EMaxC= 1.00D-01 BMatC= 1.24D-04 BMatP= 1.16D-03
 IDIUse=3 WtCom= 9.93D-01 WtEn= 7.38D-03
 Coeff-Com:  0.130D+00 0.870D+00
 Coeff-En:   0.000D+00 0.100D+01
 Coeff:      0.129D+00 0.871D+00
 Gap=     0.209 Goal=   None    Shift=    0.000
 RMSDP=1.24D-04 MaxDP=2.24D-03 DE=-1.18D-03 OVMax= 8.04D-03

 Cycle   3  Pass 0  IDiag  1:
 RMSU=  1.23D-04    CP:  1.00D+00  1.04D+00
 E= -385.722442328843     Delta-E=       -0.000071073496 Rises=F Damp=F
 DIIS: error= 1.12D-03 at cycle   3 NSaved=   3.
 NSaved= 3 IEnMin= 3 EnMin= -385.722442328843     IErMin= 2 ErrMin= 7.38D-04
 ErrMax= 1.12D-03  0.00D+00 EMaxC= 1.00D-01 BMatC= 8.73D-05 BMatP= 1.24D-04
 IDIUse=3 WtCom= 9.89D-01 WtEn= 1.12D-02
 Coeff-Com: -0.152D-01 0.451D+00 0.564D+00
 Coeff-En:   0.000D+00 0.309D+00 0.691D+00
 Coeff:     -0.150D-01 0.449D+00 0.566D+00
 Gap=     0.211 Goal=   None    Shift=    0.000
 RMSDP=7.41D-05 MaxDP=1.30D-03 DE=-7.11D-05 OVMax= 6.62D-03

 Cycle   4  Pass 0  IDiag  1:
 RMSU=  5.17D-05    CP:  1.00D+00  1.09D+00  6.03D-01
 E= -385.722544646694     Delta-E=       -0.000102317851 Rises=F Damp=F
 DIIS: error= 4.15D-04 at cycle   4 NSaved=   4.
 NSaved= 4 IEnMin= 4 EnMin= -385.722544646694     IErMin= 4 ErrMin= 4.15D-04
 ErrMax= 4.15D-04  0.00D+00 EMaxC= 1.00D-01 BMatC= 9.29D-06 BMatP= 8.73D-05
 IDIUse=3 WtCom= 9.96D-01 WtEn= 4.15D-03
 Coeff-Com: -0.161D-01 0.106D+00 0.280D+00 0.630D+00
 Coeff-En:   0.000D+00 0.000D+00 0.000D+00 0.100D+01
 Coeff:     -0.161D-01 0.106D+00 0.279D+00 0.632D+00
 Gap=     0.210 Goal=   None    Shift=    0.000
 RMSDP=2.41D-05 MaxDP=3.45D-04 DE=-1.02D-04 OVMax= 2.75D-03

 Cycle   5  Pass 0  IDiag  1:
 RMSU=  1.79D-05    CP:  1.00D+00  1.09D+00  7.29D-01  9.22D-01
 E= -385.722564048162     Delta-E=       -0.000019401467 Rises=F Damp=F
 DIIS: error= 2.39D-04 at cycle   5 NSaved=   5.
 NSaved= 5 IEnMin= 5 EnMin= -385.722564048162     IErMin= 5 ErrMin= 2.39D-04
 ErrMax= 2.39D-04  0.00D+00 EMaxC= 1.00D-01 BMatC= 1.06D-06 BMatP= 9.29D-06
 IDIUse=3 WtCom= 9.98D-01 WtEn= 2.39D-03
 Coeff-Com: -0.163D-02-0.656D-01-0.301D-01 0.149D+00 0.949D+00
 Coeff-En:   0.000D+00 0.000D+00 0.000D+00 0.000D+00 0.100D+01
 Coeff:     -0.163D-02-0.655D-01-0.300D-01 0.148D+00 0.949D+00
 Gap=     0.210 Goal=   None    Shift=    0.000
 RMSDP=1.74D-05 MaxDP=4.05D-04 DE=-1.94D-05 OVMax= 2.91D-03

 Cycle   6  Pass 0  IDiag  1:
 RMSU=  1.26D-05    CP:  1.00D+00  1.11D+00  7.47D-01  1.07D+00  1.46D+00
 E= -385.722572308648     Delta-E=       -0.000008260486 Rises=F Damp=F
 DIIS: error= 1.51D-04 at cycle   6 NSaved=   6.
 NSaved= 6 IEnMin= 6 EnMin= -385.722572308648     IErMin= 6 ErrMin= 1.51D-04
 ErrMax= 1.51D-04  0.00D+00 EMaxC= 1.00D-01 BMatC= 3.01D-07 BMatP= 1.06D-06
 IDIUse=3 WtCom= 9.98D-01 WtEn= 1.51D-03
 Coeff-Com:  0.456D-02-0.520D-01-0.918D-01-0.144D+00 0.219D+00 0.106D+01
 Coeff-En:   0.000D+00 0.000D+00 0.000D+00 0.000D+00 0.000D+00 0.100D+01
 Coeff:      0.456D-02-0.520D-01-0.916D-01-0.144D+00 0.219D+00 0.106D+01
 Gap=     0.210 Goal=   None    Shift=    0.000
 RMSDP=1.35D-05 MaxDP=1.95D-04 DE=-8.26D-06 OVMax= 2.59D-03

 Cycle   7  Pass 0  IDiag  1:
 RMSU=  7.57D-06    CP:  1.00D+00  1.11D+00  7.76D-01  1.14D+00  1.92D+00
                    CP:  1.43D+00
 E= -385.722575589927     Delta-E=       -0.000003281279 Rises=F Damp=F
 DIIS: error= 5.41D-05 at cycle   7 NSaved=   7.
 NSaved= 7 IEnMin= 7 EnMin= -385.722575589927     IErMin= 7 ErrMin= 5.41D-05
 ErrMax= 5.41D-05  0.00D+00 EMaxC= 1.00D-01 BMatC= 1.01D-07 BMatP= 3.01D-07
 IDIUse=1 WtCom= 1.00D+00 WtEn= 0.00D+00
 Coeff-Com:  0.269D-02-0.869D-02-0.376D-01-0.109D+00-0.157D+00 0.497D+00
 Coeff-Com:  0.813D+00
 Coeff:      0.269D-02-0.869D-02-0.376D-01-0.109D+00-0.157D+00 0.497D+00
 Coeff:      0.813D+00
 Gap=     0.210 Goal=   None    Shift=    0.000
 RMSDP=9.10D-06 MaxDP=2.03D-04 DE=-3.28D-06 OVMax= 1.13D-03

 Initial convergence to 1.0D-05 achieved.  Increase integral accuracy.
 Cycle   8  Pass 1  IDiag  1:
 E= -385.722591533586     Delta-E=       -0.000015943659 Rises=F Damp=F
 DIIS: error= 2.99D-05 at cycle   1 NSaved=   1.
 NSaved= 1 IEnMin= 1 EnMin= -385.722591533586     IErMin= 1 ErrMin= 2.99D-05
[...]

 -- To: combinations of  5 simultaneously excited modes --
    Spectrum progression:   99.98%

 -- To: combinations of  6 simultaneously excited modes --
    Spectrum progression:   99.99%

 -- To: combinations of  7 simultaneously excited modes --
    Spectrum progression:   99.99%

     ==================================================
                 Information on Transitions
     ==================================================

 Energy of the 0-0 transition:  21101.7214 cm^(-1)

 NOTE: The energy (transition energy) refers to the relative energy,
       with respect to the 0-0 transition energy
       The intensity is the line intensity.
       DipStr is the dipole strength.

 Energy =  -1447.7038 cm^-1: |0> -> |34^1>
   -> Intensity =  1.019     (DipStr = 0.3570E-02)

 Energy =  -1322.9413 cm^-1: |0> -> |30^1>
   -> Intensity = 0.5302     (DipStr = 0.1813E-02)

 Energy =  -1262.5911 cm^-1: |0> -> |29^1>
   -> Intensity = 0.1892     (DipStr = 0.6389E-03)

 Energy =   -980.7542 cm^-1: |0> -> |21^1>
   -> Intensity = 0.4720     (DipStr = 0.1507E-02)

 Energy =   -846.6823 cm^-1: |0> -> |16^1>
   -> Intensity = 0.8561     (DipStr = 0.2660E-02)

 Energy =   -693.5559 cm^-1: |0> -> |10^1>
   -> Intensity =  1.769     (DipStr = 0.5330E-02)

 Energy =      0.0000 cm^-1: |0> -> |0>
   -> Intensity =  13.72     (DipStr = 0.3615E-01)

     ==================================================
                       Final Spectrum
     ==================================================

 Band broadening simulated by mean of Gaussian functions with
 Half-Widths at Half-Maximum of  400.00 cm^(-1)
 
 Legend:
 -------
 1st col.: Energy (in cm^-1)
 2nd col.: Intensity at T=0K
 Intensity: Emitted intensity (in microJ.mol^-1)
 -----------------------------
    13101.7214    0.462958D-03
    13121.7214    0.476629D-03
    13141.7214    0.490608D-03
    13161.7214    0.504938D-03
    13181.7214    0.519578D-03
    13201.7214    0.534560D-03
    13221.7214    0.549903D-03
    13241.7214    0.565604D-03
    13261.7214    0.581660D-03
    13281.7214    0.598099D-03
    13301.7214    0.614917D-03
    13321.7214    0.632138D-03
    13341.7214    0.649771D-03
    13361.7214    0.667816D-03
    13381.7214    0.686287D-03
    13401.7214    0.705220D-03
    13421.7214    0.724604D-03
    13441.7214    0.744512D-03
    13461.7214    0.764904D-03
    13481.7214    0.785838D-03
    13501.7214    0.807354D-03
    13521.7214    0.829463D-03
    13541.7214    0.852222D-03
    13561.7214    0.875742D-03
    13581.7214    0.899960D-03
    13601.7214    0.924987D-03
    13621.7214    0.950884D-03
    13641.7214    0.977723D-03
    13661.7214    0.100557D-02
    13681.7214    0.103451D-02
    13701.7214    0.106462D-02
    13721.7214    0.109599D-02
    13741.7214    0.112869D-02
    13761.7214    0.116283D-02
    13781.7214    0.119848D-02
    13801.7214    0.123578D-02
    13821.7214    0.127477D-02
    13841.7214    0.131554D-02
    13861.7214    0.135820D-02
    13881.7214    0.140282D-02
    13901.7214    0.144948D-02
    13921.7214    0.149827D-02
    13941.7214    0.154919D-02
    13961.7214    0.160234D-02
    13981.7214    0.165776D-02
    14001.7214    0.171545D-02
    14021.7214    0.177547D-02
    14041.7214    0.183787D-02
    14061.7214    0.190253D-02
    14081.7214    0.196950D-02
    14101.7214    0.203876D-02
    14121.7214    0.211024D-02
    14141.7214    0.218397D-02
    14161.7214    0.225981D-02
    14181.7214    0.233775D-02
    14201.7214    0.241782D-02
    14221.7214    0.249970D-02
    14241.7214    0.258347D-02
    14261.7214    0.266900D-02
    14281.7214    0.275621D-02
    14301.7214    0.284501D-02
    14321.7214    0.293535D-02
    14341.7214    0.302707D-02
    14361.7214    0.312015D-02
    14381.7214    0.321449D-02
    14401.7214    0.331005D-02
    14421.7214    0.340673D-02
    14441.7214    0.350449D-02
    14461.7214    0.360327D-02
    14481.7214    0.370307D-02
    14501.7214    0.380386D-02
    14521.7214    0.390561D-02
    14541.7214    0.400834D-02
    14561.7214    0.411205D-02
    14581.7214    0.421673D-02
    14601.7214    0.432244D-02
    14621.7214    0.442928D-02
    14641.7214    0.453721D-02
    14661.7214    0.464653D-02
    14681.7214    0.475698D-02
    14701.7214    0.486878D-02
    14721.7214    0.498216D-02
    14741.7214    0.509707D-02
    14761.7214    0.521368D-02
    14781.7214    0.533219D-02
    14801.7214    0.545274D-02
    14821.7214    0.557532D-02
    14841.7214    0.570022D-02
    14861.7214    0.582758D-02
    14881.7214    0.595760D-02
    14901.7214    0.609140D-02
    14921.7214    0.622745D-02
    14941.7214    0.636675D-02
    14961.7214    0.650980D-02
    14981.7214    0.665629D-02
    15001.7214    0.680675D-02
    15021.7214    0.696180D-02
    15041.7214    0.712085D-02
    15061.7214    0.728463D-02
    15081.7214    0.745334D-02
    15101.7214    0.762702D-02
    15121.7214    0.780620D-02
    15141.7214    0.799110D-02
    15161.7214    0.818170D-02
    15181.7214    0.837858D-02
    15201.7214    0.858177D-02
    15221.7214    0.879171D-02
    15241.7214    0.900891D-02
    15261.7214    0.923331D-02
    15281.7214    0.946524D-02
    15301.7214    0.970529D-02
    15321.7214    0.995359D-02
    15341.7214    0.102110D-01
    15361.7214    0.104779D-01
    15381.7214    0.107541D-01
    15401.7214    0.110406D-01
    15421.7214    0.113379D-01
    15441.7214    0.116464D-01
    15461.7214    0.119670D-01
    15481.7214    0.123010D-01
    15501.7214    0.126486D-01
    15521.7214    0.130099D-01
    15541.7214    0.133865D-01
    15561.7214    0.137788D-01
    15581.7214    0.141879D-01
    15601.7214    0.146153D-01
    15621.7214    0.150609D-01
    15641.7214    0.155275D-01
    15661.7214    0.160139D-01
    15681.7214    0.165215D-01
    15701.7214    0.170519D-01
    15721.7214    0.176057D-01
    15741.7214    0.181835D-01
    15761.7214    0.187861D-01
    15781.7214    0.194146D-01
    15801.7214    0.200692D-01
    15821.7214    0.207508D-01
    15841.7214    0.214594D-01
    15861.7214    0.221953D-01
    15881.7214    0.229593D-01
    15901.7214    0.237506D-01
    15921.7214    0.245697D-01
    15941.7214    0.254169D-01
    15961.7214    0.262907D-01
    15981.7214    0.271912D-01
    16001.7214    0.281186D-01
    16021.7214    0.290712D-01
    16041.7214    0.300491D-01
    16061.7214    0.310517D-01
    16081.7214    0.320785D-01
    16101.7214    0.331291D-01
    16121.7214    0.342008D-01
    16141.7214    0.352944D-01
    16161.7214    0.364088D-01
    16181.7214    0.375432D-01
    16201.7214    0.386977D-01
    16221.7214    0.398725D-01
    16241.7214    0.410647D-01
    16261.7214    0.422754D-01
    16281.7214    0.435048D-01
    16301.7214    0.447518D-01
    16321.7214    0.460166D-01
    16341.7214    0.473116D-01
    16361.7214    0.486158D-01
    16381.7214    0.499382D-01
    16401.7214    0.512813D-01
    16421.7214    0.526430D-01
    16441.7214    0.540247D-01
    16461.7214    0.554270D-01
    16481.7214    0.568495D-01
    16501.7214    0.582954D-01
    16521.7214    0.597612D-01
    16541.7214    0.612493D-01
    16561.7214    0.627608D-01
    16581.7214    0.642977D-01
    16601.7214    0.658556D-01
    16621.7214    0.674388D-01
    16641.7214    0.690462D-01
    16661.7214    0.706800D-01
    16681.7214    0.723414D-01
    16701.7214    0.740324D-01
    16721.7214    0.757506D-01
    16741.7214    0.775001D-01
    16761.7214    0.792842D-01
    16781.7214    0.811031D-01
    16801.7214    0.829706D-01
    16821.7214    0.848738D-01
    16841.7214    0.868232D-01
    16861.7214    0.888265D-01
    16881.7214    0.908849D-01
    16901.7214    0.930072D-01
    16921.7214    0.952092D-01
    16941.7214    0.974803D-01
    16961.7214    0.998375D-01
    16981.7214    0.102293D+00
    17001.7214    0.104849D+00
    17021.7214    0.107519D+00
    17041.7214    0.110318D+00
    17061.7214    0.113248D+00
    17081.7214    0.116323D+00
    17101.7214    0.119556D+00
    17121.7214    0.122954D+00
    17141.7214    0.126532D+00
    17161.7214    0.130297D+00
    17181.7214    0.134259D+00
    17201.7214    0.138426D+00
    17221.7214    0.142808D+00
    17241.7214    0.147412D+00
    17261.7214    0.152247D+00
    17281.7214    0.157309D+00
    17301.7214    0.162606D+00
    17321.7214    0.168143D+00
    17341.7214    0.173912D+00
    17361.7214    0.179916D+00
    17381.7214    0.186159D+00
    17401.7214    0.192632D+00
    17421.7214    0.199318D+00
    17441.7214    0.206218D+00
    17461.7214    0.213321D+00
    17481.7214    0.220614D+00
    17501.7214    0.228089D+00
    17521.7214    0.235735D+00
    17541.7214    0.243555D+00
    17561.7214    0.251493D+00
    17581.7214    0.259556D+00
    17601.7214    0.267727D+00
    17621.7214    0.275988D+00
    17641.7214    0.284326D+00
    17661.7214    0.292724D+00
    17681.7214    0.301178D+00
    17701.7214    0.309651D+00
    17721.7214    0.318138D+00
    17741.7214    0.326632D+00
    17761.7214    0.335112D+00
    17781.7214    0.343563D+00
    17801.7214    0.351980D+00
    17821.7214    0.360350D+00
    17841.7214    0.368663D+00
    17861.7214    0.376917D+00
    17881.7214    0.385096D+00
    17901.7214    0.393204D+00
    17921.7214    0.401227D+00
    17941.7214    0.409168D+00
    17961.7214    0.417023D+00
    17981.7214    0.424793D+00
    18001.7214    0.432482D+00
    18021.7214    0.440114D+00
    18041.7214    0.447648D+00
    18061.7214    0.455114D+00
    18081.7214    0.462534D+00
    18101.7214    0.469893D+00
    18121.7214    0.477212D+00
    18141.7214    0.484530D+00
    18161.7214    0.491822D+00
    18181.7214    0.499129D+00
    18201.7214    0.506465D+00
    18221.7214    0.513857D+00
    18241.7214    0.521502D+00
    18261.7214    0.529117D+00
    18281.7214    0.536878D+00
    18301.7214    0.544821D+00
    18321.7214    0.552948D+00
    18341.7214    0.561306D+00
    18361.7214    0.570016D+00
    18381.7214    0.578955D+00
    18401.7214    0.588226D+00
    18421.7214    0.597892D+00
    18441.7214    0.607929D+00
    18461.7214    0.618396D+00
    18481.7214    0.629317D+00
    18501.7214    0.640732D+00
    18521.7214    0.652652D+00
    18541.7214    0.665113D+00
    18561.7214    0.678136D+00
    18581.7214    0.691750D+00
    18601.7214    0.705988D+00
    18621.7214    0.720849D+00
    18641.7214    0.736369D+00
    18661.7214    0.752574D+00
    18681.7214    0.769491D+00
    18701.7214    0.787224D+00
    18721.7214    0.805674D+00
    18741.7214    0.824938D+00
    18761.7214    0.845058D+00
    18781.7214    0.866080D+00
    18801.7214    0.888057D+00
    18821.7214    0.911065D+00
    18841.7214    0.935285D+00
    18861.7214    0.960548D+00
    18881.7214    0.987044D+00
    18901.7214    0.101486D+01
    18921.7214    0.104409D+01
    18941.7214    0.107481D+01
    18961.7214    0.110714D+01
    18981.7214    0.114115D+01
    19001.7214    0.117729D+01
    19021.7214    0.121506D+01
    19041.7214    0.125482D+01
    19061.7214    0.129665D+01
    19081.7214    0.134061D+01
    19101.7214    0.138677D+01
    19121.7214    0.143518D+01
    19141.7214    0.148586D+01
    19161.7214    0.153879D+01
    19181.7214    0.159400D+01
    19201.7214    0.165144D+01
    19221.7214    0.171102D+01
    19241.7214    0.177267D+01
    19261.7214    0.183626D+01
    19281.7214    0.190168D+01
    19301.7214    0.196872D+01
    19321.7214    0.203719D+01
    19341.7214    0.210690D+01
    19361.7214    0.217760D+01
    19381.7214    0.224904D+01
    19401.7214    0.232096D+01
    19421.7214    0.239309D+01
    19441.7214    0.246515D+01
    19461.7214    0.253687D+01
    19481.7214    0.260797D+01
    19501.7214    0.267820D+01
    19521.7214    0.274730D+01
    19541.7214    0.281506D+01
    19561.7214    0.288125D+01
    19581.7214    0.294571D+01
    19601.7214    0.300827D+01
    19621.7214    0.306881D+01
    19641.7214    0.312726D+01
    19661.7214    0.318353D+01
    19681.7214    0.323760D+01
    19701.7214    0.329229D+01
    19721.7214    0.334276D+01
    19741.7214    0.339127D+01
    19761.7214    0.343797D+01
    19781.7214    0.348297D+01
    19801.7214    0.352643D+01
    19821.7214    0.356851D+01
    19841.7214    0.360939D+01
    19861.7214    0.364925D+01
    19881.7214    0.368828D+01
    19901.7214    0.372667D+01
    19921.7214    0.376460D+01
    19941.7214    0.380226D+01
    19961.7214    0.383981D+01
    19981.7214    0.387744D+01
    20001.7214    0.391533D+01
    20021.7214    0.395364D+01
    20041.7214    0.399256D+01
    20061.7214    0.403227D+01
    20081.7214    0.407299D+01
    20101.7214    0.411494D+01
    20121.7214    0.415840D+01
    20141.7214    0.420366D+01
    20161.7214    0.425107D+01
    20181.7214    0.430103D+01
    20201.7214    0.435400D+01
    20221.7214    0.441051D+01
    20241.7214    0.447119D+01
    20261.7214    0.453669D+01
    20281.7214    0.460775D+01
    20301.7214    0.468521D+01
    20321.7214    0.476995D+01
    20341.7214    0.486290D+01
    20361.7214    0.496506D+01
    20381.7214    0.507750D+01
    20401.7214    0.520124D+01
    20421.7214    0.533732D+01
    20441.7214    0.548677D+01
    20461.7214    0.565056D+01
    20481.7214    0.582959D+01
    20501.7214    0.602463D+01
    20521.7214    0.623637D+01
    20541.7214    0.646529D+01
    20561.7214    0.671168D+01
    20581.7214    0.697562D+01
    20601.7214    0.725695D+01
    20621.7214    0.755521D+01
    20641.7214    0.786969D+01
    20661.7214    0.819935D+01
    20681.7214    0.854284D+01
    20701.7214    0.889849D+01
    20721.7214    0.926433D+01
    20741.7214    0.963806D+01
    20761.7214    0.100171D+02
    20781.7214    0.103986D+02
    20801.7214    0.107795D+02
    20821.7214    0.111565D+02
    20841.7214    0.115260D+02
    20861.7214    0.118847D+02
    20881.7214    0.122287D+02
    20901.7214    0.125545D+02
    20921.7214    0.128584D+02
    20941.7214    0.131370D+02
    20961.7214    0.133868D+02
    20981.7214    0.136048D+02
    21001.7214    0.137881D+02
    21021.7214    0.139341D+02
    21041.7214    0.140407D+02
    21061.7214    0.141058D+02
    21081.7214    0.141286D+02
    21101.7214    0.141080D+02
    21121.7214    0.140434D+02
    21141.7214    0.139351D+02
    21161.7214    0.137835D+02
    21181.7214    0.135896D+02
    21201.7214    0.133550D+02
    21221.7214    0.130816D+02
    21241.7214    0.127716D+02
    21261.7214    0.124277D+02
    21281.7214    0.120529D+02
    21301.7214    0.116504D+02
    21321.7214    0.112235D+02
    21341.7214    0.107759D+02
    21361.7214    0.103112D+02
    21381.7214    0.983317D+01
    21401.7214    0.934550D+01
    21421.7214    0.885182D+01
    21441.7214    0.835567D+01
    21461.7214    0.786043D+01
    21481.7214    0.736928D+01
    21501.7214    0.688518D+01
    21521.7214    0.641076D+01
    21541.7214    0.594867D+01
    21561.7214    0.550094D+01
    21581.7214    0.506943D+01
    21601.7214    0.465572D+01
    21621.7214    0.426106D+01
    21641.7214    0.388641D+01
    21661.7214    0.353236D+01
    21681.7214    0.319967D+01
    21701.7214    0.288832D+01
    21721.7214    0.259828D+01
    21741.7214    0.232930D+01
    21761.7214    0.208096D+01
    21781.7214    0.185268D+01
    21801.7214    0.164375D+01
    21821.7214    0.145304D+01
    21841.7214    0.128032D+01
    21861.7214    0.112423D+01
    21881.7214    0.983756D+00
    21901.7214    0.857861D+00
    21921.7214    0.745491D+00
    21941.7214    0.645601D+00
    21961.7214    0.557161D+00
    21981.7214    0.479175D+00
    22001.7214    0.410679D+00
    22021.7214    0.350752D+00
    22041.7214    0.298539D+00
    22061.7214    0.253219D+00
    22081.7214    0.214036D+00
    22101.7214    0.180269D+00
 -----------------------------

 Leave Link  718 at Mon Mar 11 15:13:30 2024, MaxMem= 34359738368 cpu:             438.9 elap:              13.8
 (Enter /apps/gaussian/g16-c01-avx2/g16/l9999.exe)

 ----------------------------------------------------------------------

 Electric dipole moment (input orientation):
 (Debye = 10**-18 statcoulomb cm , SI units = C m)
                  (au)            (Debye)         (10**-30 SI)
   Tot        0.508418D+00      0.129227D+01      0.431054D+01
   x         -0.216794D+00     -0.551036D+00     -0.183806D+01
   y         -0.459879D+00     -0.116890D+01     -0.389902D+01
   z         -0.802453D-04     -0.203963D-03     -0.680348D-03

 Dipole polarizability, Alpha (input orientation).
 (esu units = cm**3 , SI units = C**2 m**2 J**-1)
 Alpha(0;0):
               (au)            (10**-24 esu)      (10**-40 SI)
   iso        0.121638D+03      0.180249D+02      0.200554D+02
   aniso      0.110667D+03      0.163992D+02      0.182466D+02
   xx         0.134269D+03      0.198967D+02      0.221380D+02
   yx         0.238258D+02      0.353062D+01      0.392835D+01
   yy         0.173590D+03      0.257233D+02      0.286211D+02
   zx        -0.268714D-01     -0.398193D-02     -0.443050D-02
   zy         0.329975D-01      0.488972D-02      0.544055D-02
   zz         0.570549D+02      0.845466D+01      0.940708D+01

 ----------------------------------------------------------------------

 Dipole orientation:
     6         -2.95691073          1.35113931          0.17240549
     6         -0.80846304          0.33646586         -0.93728755
     6         -0.25072329          0.07316298         -3.48493561
     6         -5.10545729          2.36581282         -0.93674559
     6         -1.68371563          0.75001788         -5.56209271
     6         -5.66377749          2.62940306         -3.48436341
     6         -4.23128087          1.95294993         -5.56189561
     1         -2.95681761          1.35111522          2.22268560
     1          0.62399757         -0.34001459          0.36047287
     1          1.56384696         -0.78344013         -3.91668761
     1         -6.53758667          3.04209863          0.36149673
     1         -7.47845082          3.48608643         -3.91560048
     6         -1.00519724          0.43063457         -8.09328698
     1          0.74233324         -0.39368710         -8.74780703
     6         -2.95856095          1.35120311         -9.60465409
     1         -2.95820549          1.35074487        -11.64711043
     6         -4.91050468          2.27331438         -8.09302644
     1         -6.65842444          3.09841405         -8.74557705

 Electric dipole moment (dipole orientation):
 (Debye = 10**-18 statcoulomb cm , SI units = C m)
                  (au)            (Debye)         (10**-30 SI)
   Tot        0.508418D+00      0.129227D+01      0.431054D+01
   x          0.000000D+00      0.000000D+00      0.000000D+00
   y          0.000000D+00      0.000000D+00      0.000000D+00
   z          0.508418D+00      0.129227D+01      0.431054D+01

 Dipole polarizability, Alpha (dipole orientation).
 (esu units = cm**3 , SI units = C**2 m**2 J**-1)
 Alpha(0;0):
               (au)            (10**-24 esu)      (10**-40 SI)
   iso        0.121638D+03      0.180249D+02      0.200554D+02
   aniso      0.110667D+03      0.163992D+02      0.182466D+02
   xx         0.111012D+03      0.164503D+02      0.183035D+02
   yx        -0.254748D+02     -0.377497D+01     -0.420022D+01
   yy         0.690822D+02      0.102369D+02      0.113901D+02
   zx         0.468344D-02      0.694014D-03      0.772195D-03
   zy        -0.243759D-03     -0.361214D-04     -0.401905D-04
   zz         0.184820D+03      0.273874D+02      0.304726D+02

 ----------------------------------------------------------------------

 This type of calculation cannot be archived.


 In the beginning there was nothing, which exploded.
 Job cpu time:       0 days  0 hours  7 minutes 26.5 seconds.
 Elapsed time:       0 days  0 hours  0 minutes 14.1 seconds.
 File lengths (MBytes):  RWF=      6 Int=      0 D2E=      0 Chk=      6 Scr=      1
 Normal termination of Gaussian 16 at Mon Mar 11 15:13:31 2024.
