 Entering Gaussian System, Link 0=g16
 Initial command:
 /apps/gaussian/g16-c01-avx2/g16/l1.exe "/var/tmp/pbs.8812233.pbs/Gau-3781573.inp" -scrdir="/var/tmp/pbs.8812233.pbs/"
 Entering Link 1 = /apps/gaussian/g16-c01-avx2/g16/l1.exe PID=   3781574.
  
 Copyright (c) 1988-2019, Gaussian, Inc.  All Rights Reserved.
  
 This is part of the Gaussian(R) 16 program.  It is based on
 the Gaussian(R) 09 system (copyright 2009, Gaussian, Inc.),
 the Gaussian(R) 03 system (copyright 2003, Gaussian, Inc.),
 the Gaussian(R) 98 system (copyright 1998, Gaussian, Inc.),
 the Gaussian(R) 94 system (copyright 1995, Gaussian, Inc.),
 the Gaussian 92(TM) system (copyright 1992, Gaussian, Inc.),
 the Gaussian 90(TM) system (copyright 1990, Gaussian, Inc.),
 the Gaussian 88(TM) system (copyright 1988, Gaussian, Inc.),
 the Gaussian 86(TM) system (copyright 1986, Carnegie Mellon
 University), and the Gaussian 82(TM) system (copyright 1983,
 Carnegie Mellon University). Gaussian is a federally registered
 trademark of Gaussian, Inc.
  
 This software contains proprietary and confidential information,
 including trade secrets, belonging to Gaussian, Inc.
  
 This software is provided under written license and may be
 used, copied, transmitted, or stored only in accord with that
 written license.
  
 The following legend is applicable only to US Government
 contracts under FAR:
  
                    RESTRICTED RIGHTS LEGEND
  
 Use, reproduction and disclosure by the US Government is
 subject to restrictions as set forth in subparagraphs (a)
 and (c) of the Commercial Computer Software - Restricted
 Rights clause in FAR 52.227-19.
  
 Gaussian, Inc.
 340 Quinnipiac St., Bldg. 40, Wallingford CT 06492
  
  
 ---------------------------------------------------------------
 Warning -- This program may not be used in any manner that
 competes with the business of Gaussian, Inc. or will provide
 assistance to any competitor of Gaussian, Inc.  The licensee
 of this program is prohibited from giving any competitor of
 Gaussian, Inc. access to this program.  By using this program,
 the user acknowledges that Gaussian, Inc. is engaged in the
 business of creating and licensing software in the field of
 computational chemistry and represents and warrants to the
 licensee that it is not a competitor of Gaussian, Inc. and that
 it will not use this program in any manner prohibited above.
 ---------------------------------------------------------------
  

 Cite this work as:
 Gaussian 16, Revision C.01,
 M. J. Frisch, G. W. Trucks, H. B. Schlegel, G. E. Scuseria, 
 M. A. Robb, J. R. Cheeseman, G. Scalmani, V. Barone, 
 G. A. Petersson, H. Nakatsuji, X. Li, M. Caricato, A. V. Marenich, 
 J. Bloino, B. G. Janesko, R. Gomperts, B. Mennucci, H. P. Hratchian, 
 J. V. Ortiz, A. F. Izmaylov, J. L. Sonnenberg, D. Williams-Young, 
 F. Ding, F. Lipparini, F. Egidi, J. Goings, B. Peng, A. Petrone, 
 T. Henderson, D. Ranasinghe, V. G. Zakrzewski, J. Gao, N. Rega, 
 G. Zheng, W. Liang, M. Hada, M. Ehara, K. Toyota, R. Fukuda, 
 J. Hasegawa, M. Ishida, T. Nakajima, Y. Honda, O. Kitao, H. Nakai, 
 T. Vreven, K. Throssell, J. A. Montgomery, Jr., J. E. Peralta, 
 F. Ogliaro, M. J. Bearpark, J. J. Heyd, E. N. Brothers, K. N. Kudin, 
 V. N. Staroverov, T. A. Keith, R. Kobayashi, J. Normand, 
 K. Raghavachari, A. P. Rendell, J. C. Burant, S. S. Iyengar, 
 J. Tomasi, M. Cossi, J. M. Millam, M. Klene, C. Adamo, R. Cammi, 
 J. W. Ochterski, R. L. Martin, K. Morokuma, O. Farkas, 
 J. B. Foresman, and D. J. Fox, Gaussian, Inc., Wallingford CT, 2019.
 
 ******************************************
 Gaussian 16:  ES64L-G16RevC.01  3-Jul-2019
                28-Jan-2024 
 ******************************************
 %chk=/rds/general/user/rk820/home/run_g16/test009_16_savechk.chk
 -----------------------------------
 #P TEST OPT STO-3G scf=conventional
 -----------------------------------
 1/18=20,19=15,38=1/1,3;
 2/9=110,12=2,17=6,18=5,40=1/2;
 3/6=3,11=9,25=20,28=1,30=1,71=1/1,2,3,20;
 4//1;
 5/5=1/2;
 6/7=2,8=2,9=2,10=2,28=1/1;
 7//1,2,3,16;
 1/18=20,19=15/3(2);
 2/9=110/2;
 99//99;
 2/9=110/2;
 3/6=3,11=9,25=20,28=1,30=1,71=1/1,2,3,20;
 4/5=5,16=3,69=1/1;
 5/5=1,38=5/2;
 7//1,2,3,16;
 1/18=20,19=15/3(-5);
 2/9=110/2;
 6/7=2,8=2,9=2,10=2,19=2,28=1/1;
 99/9=1/99;
 Leave Link    1 at Sun Jan 28 02:33:00 2024, MaxMem=           0 cpu:               0.0 elap:               0.1
 (Enter /apps/gaussian/g16-c01-avx2/g16/l101.exe)
 ----------------------------------------------------------------------
 Gaussian Test Job 16 STO-3G BERNY OPTIMIZATION OF WATER save .chk to r
 ead later for freq
 ----------------------------------------------------------------------
 Symbolic Z-matrix:
 Charge =  0 Multiplicity = 1
 O
 H                    1    R
 H                    1    R        2    A
       Variables:
  R                     0.96                     
  A                   109.47122                  
 
     1 tetrahedral angles replaced.
 ITRead=  0  0  0
 MicOpt= -1 -1 -1
 NAtoms=      3 NQM=        3 NQMF=       0 NMMI=      0 NMMIF=      0
                NMic=       0 NMicF=      0.
                    Isotopes and Nuclear Properties:
 (Nuclear quadrupole moments (NQMom) in fm**2, nuclear magnetic moments (NMagM)
  in nuclear magnetons)

  Atom         1           2           3
 IAtWgt=          16           1           1
 AtmWgt=  15.9949146   1.0078250   1.0078250
 NucSpn=           0           1           1
 AtZEff=  -0.0000000  -0.0000000  -0.0000000
 NQMom=    0.0000000   0.0000000   0.0000000
 NMagM=    0.0000000   2.7928460   2.7928460
 AtZNuc=   8.0000000   1.0000000   1.0000000
 Leave Link  101 at Sun Jan 28 02:33:01 2024, MaxMem=   104857600 cpu:               0.1 elap:               0.1
 (Enter /apps/gaussian/g16-c01-avx2/g16/l103.exe)

 GradGradGradGradGradGradGradGradGradGradGradGradGradGradGradGradGradGrad
 Berny optimization.
 Initialization pass.
                           ----------------------------
                           !    Initial Parameters    !
                           ! (Angstroms and Degrees)  !
 --------------------------                            --------------------------
 ! Name  Definition              Value          Derivative Info.                !
 --------------------------------------------------------------------------------
 ! R1    R(1,2)                  0.96           estimate D2E/DX2                !
 ! R2    R(1,3)                  0.96           estimate D2E/DX2                !
 ! A1    A(2,1,3)              109.4712         estimate D2E/DX2                !
 --------------------------------------------------------------------------------
 Trust Radius=3.00D-01 FncErr=1.00D-07 GrdErr=1.00D-07 EigMax=2.50D+02 EigMin=1.00D-04
 Number of steps in this run=     20 maximum allowed number of steps=    100.
 GradGradGradGradGradGradGradGradGradGradGradGradGradGradGradGradGradGrad

 Leave Link  103 at Sun Jan 28 02:33:01 2024, MaxMem=   104857600 cpu:               0.0 elap:               0.0
 (Enter /apps/gaussian/g16-c01-avx2/g16/l202.exe)
                          Input orientation:                          
 ---------------------------------------------------------------------
 Center     Atomic      Atomic             Coordinates (Angstroms)
 Number     Number       Type             X           Y           Z
 ---------------------------------------------------------------------
      1          8           0        0.000000    0.000000    0.000000
      2          1           0        0.000000    0.000000    0.960000
      3          1           0        0.905097    0.000000   -0.320000
 ---------------------------------------------------------------------
                    Distance matrix (angstroms):
                    1          2          3
     1  O    0.000000
     2  H    0.960000   0.000000
     3  H    0.960000   1.567673   0.000000
 Stoichiometry    H2O
 Framework group  C2V[C2(O),SGV(H2)]
 Deg. of freedom     2
 Full point group                 C2V     NOp   4
 Largest Abelian subgroup         C2V     NOp   4
 Largest concise Abelian subgroup C2      NOp   2
                         Standard orientation:                         
 ---------------------------------------------------------------------
 Center     Atomic      Atomic             Coordinates (Angstroms)
 Number     Number       Type             X           Y           Z
 ---------------------------------------------------------------------
      1          8           0       -0.000000    0.000000    0.110851
      2          1           0        0.000000    0.783837   -0.443405
      3          1           0       -0.000000   -0.783837   -0.443405
 ---------------------------------------------------------------------
 Rotational constants (GHZ):         919.0227301         408.0852087         282.5991554
 Leave Link  202 at Sun Jan 28 02:33:02 2024, MaxMem=   104857600 cpu:               0.0 elap:               0.0
 (Enter /apps/gaussian/g16-c01-avx2/g16/l301.exe)
 Standard basis: STO-3G (5D, 7F)
 Ernie: Thresh=  0.10000D-02 Tol=  0.10000D-05 Strict=F.
 There are     4 symmetry adapted cartesian basis functions of A1  symmetry.
 There are     0 symmetry adapted cartesian basis functions of A2  symmetry.
 There are     1 symmetry adapted cartesian basis functions of B1  symmetry.
 There are     2 symmetry adapted cartesian basis functions of B2  symmetry.
 There are     4 symmetry adapted basis functions of A1  symmetry.
 There are     0 symmetry adapted basis functions of A2  symmetry.
 There are     1 symmetry adapted basis functions of B1  symmetry.
 There are     2 symmetry adapted basis functions of B2  symmetry.
     7 basis functions,    21 primitive gaussians,     7 cartesian basis functions
     5 alpha electrons        5 beta electrons
       nuclear repulsion energy         9.1571759503 Hartrees.
 IExCor=    0 DFT=F Ex=HF Corr=None ExCW=0 ScaHFX=  1.000000
 ScaDFX=  1.000000  1.000000  1.000000  1.000000 ScalE2=  1.000000  1.000000
 IRadAn=      5 IRanWt=     -1 IRanGd=            0 ICorTp=0 IEmpDi=  4
 NAtoms=    3 NActive=    3 NUniq=    2 SFac= 2.25D+00 NAtFMM=   60 NAOKFM=F Big=F
 Integral buffers will be    131072 words long.
 Raffenetti 1 integral format.
 Two-electron integral symmetry is turned on.
 Leave Link  301 at Sun Jan 28 02:33:02 2024, MaxMem=   104857600 cpu:               0.0 elap:               0.2
 (Enter /apps/gaussian/g16-c01-avx2/g16/l302.exe)
 NPDir=0 NMtPBC=     1 NCelOv=     1 NCel=       1 NClECP=     1 NCelD=      1
         NCelK=      1 NCelE2=     1 NClLst=     1 CellRange=     0.0.
 One-electron integrals computed using PRISM.
 One-electron integral symmetry used in STVInt
 NBasis=     7 RedAO= T EigKep=  3.45D-01  NBF=     4     0     1     2
 NBsUse=     7 1.00D-06 EigRej= -1.00D+00 NBFU=     4     0     1     2
 Leave Link  302 at Sun Jan 28 02:33:03 2024, MaxMem=   104857600 cpu:               0.1 elap:               0.1
 (Enter /apps/gaussian/g16-c01-avx2/g16/l303.exe)
 DipDrv:  MaxL=1.
 Leave Link  303 at Sun Jan 28 02:33:03 2024, MaxMem=   104857600 cpu:               0.0 elap:               0.0
 (Enter /apps/gaussian/g16-c01-avx2/g16/l320.exe)
 Enter DskPsm, NBasis=   7 NBas6D=   7 NShell=   4 IDoSP=3.
 Generating unsorted Raff 1 combos
 Use symmetry via Dacre-Elder procedure.
 NGot=   104595408 Memory for integrals=   104592169 for sort=           0.
 Out2e will use a cutoff of  1.00D-10
          141 integrals produced for a total of          141.
 Leave Link  320 at Sun Jan 28 02:33:04 2024, MaxMem=   104857600 cpu:               0.1 elap:               0.1
 (Enter /apps/gaussian/g16-c01-avx2/g16/l401.exe)
 ExpMin= 1.69D-01 ExpMax= 1.31D+02 ExpMxC= 1.31D+02 IAcc=3 IRadAn=         5 AccDes= 0.00D+00
 Harris functional with IExCor=  205 and IRadAn=       5 diagonalized for initial guess.
 HarFok:  IExCor=  205 AccDes= 0.00D+00 IRadAn=         5 IDoV= 1 UseB2=F ITyADJ=14
 ICtDFT=  3500011 ScaDFX=  1.000000  1.000000  1.000000  1.000000
 FoFCou: FMM=F IPFlag=           0 FMFlag=      100000 FMFlg1=           0
         NFxFlg=           0 DoJE=T BraDBF=F KetDBF=T FulRan=T
         wScrn=  0.000000 ICntrl=       500 IOpCl=  0 I1Cent=   200000004 NGrid=           0
         NMat0=    1 NMatS0=      1 NMatT0=    0 NMatD0=    1 NMtDS0=    0 NMtDT0=    0
 Petite list used in FoFCou.
 Harris En= -75.0356789550230    
 JPrj=0 DoOrth=F DoCkMO=F.
 Initial guess orbital symmetries:
       Occupied  (A1) (A1) (B2) (A1) (B1)
       Virtual   (A1) (B2)
 The electronic state of the initial guess is 1-A1.
 Leave Link  401 at Sun Jan 28 02:33:05 2024, MaxMem=   104857600 cpu:               0.1 elap:               0.1
 (Enter /apps/gaussian/g16-c01-avx2/g16/l502.exe)
 Two-electron integrals will be kept in memory, NGetB=      262522.
 Integral symmetry usage will be decided dynamically.
 Closed shell SCF:
 Using DIIS extrapolation, IDIIS=  1040.
 NGot=   104857600 LenX=   104593901 LenY=   104593019
 Requested convergence on RMS density matrix=1.00D-08 within 128 cycles.
 Requested convergence on MAX density matrix=1.00D-06.
 Requested convergence on             energy=1.00D-06.
 No special actions if energy rises.

 Cycle   1  Pass 1  IDiag  1:
 E= -74.9079311176621    
 DIIS: error= 7.72D-02 at cycle   1 NSaved=   1.
 NSaved= 1 IEnMin= 1 EnMin= -74.9079311176621     IErMin= 1 ErrMin= 7.72D-02
 ErrMax= 7.72D-02  0.00D+00 EMaxC= 1.00D-01 BMatC= 3.93D-02 BMatP= 3.93D-02
 IDIUse=3 WtCom= 2.28D-01 WtEn= 7.72D-01
 Coeff-Com:  0.100D+01
 Coeff-En:   0.100D+01
 Coeff:      0.100D+01
 Gap=     0.880 Goal=   None    Shift=    0.000
 GapD=    0.880 DampG=2.000 DampE=0.500 DampFc=1.0000 IDamp=-1.
 RMSDP=4.02D-02 MaxDP=1.43D-01              OVMax= 0.00D+00

 Cycle   2  Pass 1  IDiag  1:
 E= -74.9603525981957     Delta-E=       -0.052421480534 Rises=F Damp=F
 DIIS: error= 6.28D-03 at cycle   2 NSaved=   2.
 NSaved= 2 IEnMin= 2 EnMin= -74.9603525981957     IErMin= 2 ErrMin= 6.28D-03
 ErrMax= 6.28D-03  0.00D+00 EMaxC= 1.00D-01 BMatC= 3.47D-04 BMatP= 3.93D-02
 IDIUse=3 WtCom= 9.37D-01 WtEn= 6.28D-02
 Coeff-Com:  0.501D-01 0.950D+00
 Coeff-En:   0.000D+00 0.100D+01
 Coeff:      0.470D-01 0.953D+00
 Gap=     0.980 Goal=   None    Shift=    0.000
 RMSDP=2.79D-03 MaxDP=1.15D-02 DE=-5.24D-02 OVMax= 0.00D+00

 Cycle   3  Pass 1  IDiag  1:
 E= -74.9607062406794     Delta-E=       -0.000353642484 Rises=F Damp=F
 DIIS: error= 1.15D-03 at cycle   3 NSaved=   3.
 NSaved= 3 IEnMin= 3 EnMin= -74.9607062406794     IErMin= 3 ErrMin= 1.15D-03
 ErrMax= 1.15D-03  0.00D+00 EMaxC= 1.00D-01 BMatC= 9.38D-06 BMatP= 3.47D-04
 IDIUse=3 WtCom= 9.89D-01 WtEn= 1.15D-02
 Coeff-Com: -0.105D-01-0.176D+00 0.119D+01
 Coeff-En:   0.000D+00 0.000D+00 0.100D+01
 Coeff:     -0.103D-01-0.174D+00 0.118D+01
 Gap=     0.980 Goal=   None    Shift=    0.000
 RMSDP=9.15D-04 MaxDP=3.95D-03 DE=-3.54D-04 OVMax= 0.00D+00

 Cycle   4  Pass 1  IDiag  1:
 E= -74.9607225837334     Delta-E=       -0.000016343054 Rises=F Damp=F
 DIIS: error= 1.85D-04 at cycle   4 NSaved=   4.
 NSaved= 4 IEnMin= 4 EnMin= -74.9607225837334     IErMin= 4 ErrMin= 1.85D-04
 ErrMax= 1.85D-04  0.00D+00 EMaxC= 1.00D-01 BMatC= 2.68D-07 BMatP= 9.38D-06
 IDIUse=3 WtCom= 9.98D-01 WtEn= 1.85D-03
 Coeff-Com:  0.150D-02 0.135D-01-0.231D+00 0.122D+01
 Coeff-En:   0.000D+00 0.000D+00 0.000D+00 0.100D+01
 Coeff:      0.150D-02 0.135D-01-0.230D+00 0.122D+01
 Gap=     0.980 Goal=   None    Shift=    0.000
 RMSDP=2.07D-04 MaxDP=8.20D-04 DE=-1.63D-05 OVMax= 0.00D+00

 Cycle   5  Pass 1  IDiag  1:
 E= -74.9607232314923     Delta-E=       -0.000000647759 Rises=F Damp=F
 DIIS: error= 3.41D-05 at cycle   5 NSaved=   5.
 NSaved= 5 IEnMin= 5 EnMin= -74.9607232314923     IErMin= 5 ErrMin= 3.41D-05
 ErrMax= 3.41D-05  0.00D+00 EMaxC= 1.00D-01 BMatC= 1.39D-08 BMatP= 2.68D-07
 IDIUse=1 WtCom= 1.00D+00 WtEn= 0.00D+00
 Coeff-Com: -0.628D-03-0.492D-02 0.124D+00-0.798D+00 0.168D+01
 Coeff:     -0.628D-03-0.492D-02 0.124D+00-0.798D+00 0.168D+01
 Gap=     0.980 Goal=   None    Shift=    0.000
 RMSDP=6.20D-05 MaxDP=1.89D-04 DE=-6.48D-07 OVMax= 0.00D+00

 Cycle   6  Pass 1  IDiag  1:
 E= -74.9607232750769     Delta-E=       -0.000000043585 Rises=F Damp=F
 DIIS: error= 2.05D-07 at cycle   6 NSaved=   6.
 NSaved= 6 IEnMin= 6 EnMin= -74.9607232750769     IErMin= 6 ErrMin= 2.05D-07
 ErrMax= 2.05D-07  0.00D+00 EMaxC= 1.00D-01 BMatC= 4.08D-13 BMatP= 1.39D-08
 IDIUse=1 WtCom= 1.00D+00 WtEn= 0.00D+00
 Coeff-Com: -0.235D-07-0.153D-04 0.414D-03-0.305D-02 0.111D-01 0.992D+00
 Coeff:     -0.235D-07-0.153D-04 0.414D-03-0.305D-02 0.111D-01 0.992D+00
 Gap=     0.980 Goal=   None    Shift=    0.000
 RMSDP=2.78D-07 MaxDP=9.68D-07 DE=-4.36D-08 OVMax= 0.00D+00

 Cycle   7  Pass 1  IDiag  1:
 E= -74.9607232750779     Delta-E=       -0.000000000001 Rises=F Damp=F
 DIIS: error= 2.04D-10 at cycle   7 NSaved=   7.
 NSaved= 7 IEnMin= 7 EnMin= -74.9607232750779     IErMin= 7 ErrMin= 2.04D-10
 ErrMax= 2.04D-10  0.00D+00 EMaxC= 1.00D-01 BMatC= 3.55D-19 BMatP= 4.08D-13
 IDIUse=1 WtCom= 1.00D+00 WtEn= 0.00D+00
 Coeff-Com:  0.824D-10 0.117D-07 0.411D-06-0.487D-05 0.168D-04 0.157D-02
 Coeff-Com:  0.998D+00
 Coeff:      0.824D-10 0.117D-07 0.411D-06-0.487D-05 0.168D-04 0.157D-02
 Coeff:      0.998D+00
 Gap=     0.980 Goal=   None    Shift=    0.000
 RMSDP=2.46D-10 MaxDP=7.71D-10 DE=-9.95D-13 OVMax= 0.00D+00

 SCF Done:  E(RHF) =  -74.9607232751     A.U. after    7 cycles
            NFock=  7  Conv=0.25D-09     -V/T= 2.0051
 KE= 7.458406051794D+01 PE=-1.969263791825D+02 EE= 3.822441943916D+01
 Leave Link  502 at Sun Jan 28 02:33:05 2024, MaxMem=   104857600 cpu:               0.0 elap:               0.0
 (Enter /apps/gaussian/g16-c01-avx2/g16/l601.exe)
 Copying SCF densities to generalized density rwf, IOpCl= 0 IROHF=0.

 **********************************************************************

            Population analysis using the SCF Density.

 **********************************************************************

 Orbital symmetries:
       Occupied  (A1) (A1) (B2) (A1) (B1)
       Virtual   (A1) (B2)
 The electronic state is 1-A1.
 Alpha  occ. eigenvalues --  -20.23454  -1.26079  -0.62393  -0.44051  -0.38697
 Alpha virt. eigenvalues --    0.59296   0.75410
          Condensed to atoms (all electrons):
               1          2          3
     1  O    7.839228   0.266628   0.266628
     2  H    0.266628   0.591638  -0.044508
     3  H    0.266628  -0.044508   0.591638
 Mulliken charges:
               1
     1  O   -0.372485
     2  H    0.186243
     3  H    0.186243
 Sum of Mulliken charges =  -0.00000
 Mulliken charges with hydrogens summed into heavy atoms:
               1
     1  O   -0.000000
 Electronic spatial extent (au):  <R**2>=             17.8525
 Charge=             -0.0000 electrons
 Dipole moment (field-independent basis, Debye):
    X=             -0.0000    Y=              0.0000    Z=             -1.6890  Tot=              1.6890
 Quadrupole moment (field-independent basis, Debye-Ang):
   XX=             -6.0921   YY=             -4.1965   ZZ=             -5.4605
   XY=              0.0000   XZ=              0.0000   YZ=             -0.0000
 Traceless Quadrupole moment (field-independent basis, Debye-Ang):
   XX=             -0.8424   YY=              1.0532   ZZ=             -0.2108
   XY=              0.0000   XZ=              0.0000   YZ=             -0.0000
 Octapole moment (field-independent basis, Debye-Ang**2):
  XXX=              0.0000  YYY=              0.0000  ZZZ=             -0.1756  XYY=             -0.0000
  XXY=             -0.0000  XXZ=             -0.0059  XZZ=              0.0000  YZZ=             -0.0000
  YYZ=             -0.5889  XYZ=             -0.0000
 Hexadecapole moment (field-independent basis, Debye-Ang**3):
 XXXX=             -3.2294 YYYY=             -6.5599 ZZZZ=             -4.7128 XXXY=             -0.0000
 XXXZ=             -0.0000 YYYX=             -0.0000 YYYZ=              0.0000 ZZZX=             -0.0000
 ZZZY=              0.0000 XXYY=             -1.8138 XXZZ=             -1.3522 YYZZ=             -1.7002
 XXYZ=              0.0000 YYXZ=              0.0000 ZZXY=             -0.0000
 N-N= 9.157175950298D+00 E-N=-1.969263791790D+02  KE= 7.458406051794D+01
 Symmetry A1   KE= 6.662722515293D+01
 Symmetry A2   KE= 0.000000000000D+00
 Symmetry B1   KE= 5.057462452019D+00
 Symmetry B2   KE= 2.899372912995D+00
 No NMR shielding tensors so no spin-rotation constants.
 Leave Link  601 at Sun Jan 28 02:33:06 2024, MaxMem=   104857600 cpu:               0.1 elap:               0.1
 (Enter /apps/gaussian/g16-c01-avx2/g16/l701.exe)
 ... and contract with generalized density number  0.
 Compute integral first derivatives.
 Leave Link  701 at Sun Jan 28 02:33:06 2024, MaxMem=   104857600 cpu:               0.0 elap:               0.0
 (Enter /apps/gaussian/g16-c01-avx2/g16/l702.exe)
 L702 exits ... SP integral derivatives will be done elsewhere.
 Leave Link  702 at Sun Jan 28 02:33:07 2024, MaxMem=   104857600 cpu:               0.0 elap:               0.0
 (Enter /apps/gaussian/g16-c01-avx2/g16/l703.exe)
 Integral derivatives from FoFJK, PRISM(SPDF).
 Compute integral first derivatives, UseDBF=F ICtDFT=           0.
 Calling FoFJK, ICntrl=      2127 FMM=F ISym2X=1 I1Cent= 0 IOpClX= 0 NMat=1 NMatS=1 NMatT=0.
 FoFJK:  IHMeth= 1 ICntrl=    2127 DoSepK=F KAlg= 0 I1Cent=           0 FoldK=F
 IRaf=         0 NMat=       1 IRICut=       1 DoRegI=T DoRafI=F ISym2E= 1 IDoP0=0 IntGTp=1.
 FoFCou: FMM=F IPFlag=           0 FMFlag=      100000 FMFlg1=         800
         NFxFlg=           0 DoJE=F BraDBF=F KetDBF=F FulRan=T
         wScrn=  0.000000 ICntrl=      2127 IOpCl=  0 I1Cent=           0 NGrid=           0
         NMat0=    1 NMatS0=      1 NMatT0=    0 NMatD0=    1 NMtDS0=    0 NMtDT0=    0
 Petite list used in FoFCou.
 Leave Link  703 at Sun Jan 28 02:33:07 2024, MaxMem=   104857600 cpu:               0.1 elap:               0.1
 (Enter /apps/gaussian/g16-c01-avx2/g16/l716.exe)
 Dipole        =-3.95327507D-17 0.00000000D+00-6.64511300D-01
 ***** Axes restored to original set *****
 -------------------------------------------------------------------
 Center     Atomic                   Forces (Hartrees/Bohr)
 Number     Number              X              Y              Z
 -------------------------------------------------------------------
      1        8          -0.059521533    0.000000000   -0.042088079
      2        1           0.022752961   -0.000000000    0.030954573
      3        1           0.036768571   -0.000000000    0.011133507
 -------------------------------------------------------------------
 Cartesian Forces:  Max     0.059521533 RMS     0.030305821
 Leave Link  716 at Sun Jan 28 02:33:08 2024, MaxMem=   104857600 cpu:               0.0 elap:               0.0
 (Enter /apps/gaussian/g16-c01-avx2/g16/l103.exe)

 GradGradGradGradGradGradGradGradGradGradGradGradGradGradGradGradGradGrad
 Berny optimization.
 FormGI is forming the generalized inverse of G from B-inverse, IUseBI=4.
 Internal  Forces:  Max     0.041276991 RMS     0.034737881
 Search for a local minimum.
 Step number   1 out of a maximum of   20
 All quantities printed in internal units (Hartrees-Bohrs-Radians)
 RMS Force = .34738D-01 SwitMx=.10000D-02 MixMth= 1
 Mixed Optimization -- RFO/linear search
 Second derivative matrix not updated -- first step.
 The second derivative matrix:
                          R1        R2        A1
           R1           0.55473
           R2           0.00000   0.55473
           A1           0.00000   0.00000   0.16000
 ITU=  0
     Eigenvalues ---    0.16000   0.55473   0.55473
 RFO step:  Lambda=-1.32107348D-02 EMin= 1.60000000D-01
 Linear search not attempted -- first point.
 Iteration  1 RMS(Cart)=  0.09791005 RMS(Int)=  0.02681099
 Iteration  2 RMS(Cart)=  0.03041267 RMS(Int)=  0.00040224
 Iteration  3 RMS(Cart)=  0.00028775 RMS(Int)=  0.00000003
 Iteration  4 RMS(Cart)=  0.00000003 RMS(Int)=  0.00000000
 ITry= 1 IFail=0 DXMaxC= 1.17D-01 DCOld= 1.00D+10 DXMaxT= 3.00D-01 DXLimC= 3.00D+00 Rises=F
 ClnCor:  largest displacement from symmetrization is 7.52D-16 for atom     1.
 Variable       Old X    -DE/DX   Delta X   Delta X   Delta X     New X
                                 (Linear)    (Quad)   (Total)
    R1        1.81414   0.03095   0.00000   0.05450   0.05450   1.86864
    R2        1.81414   0.03095   0.00000   0.05450   0.05450   1.86864
    A1        1.91063  -0.04128   0.00000  -0.23831  -0.23831   1.67233
         Item               Value     Threshold  Converged?
 Maximum Force            0.041277     0.000450     NO 
 RMS     Force            0.034738     0.000300     NO 
 Maximum Displacement     0.116697     0.001800     NO 
 RMS     Displacement     0.123761     0.001200     NO 
 Predicted change in Energy=-7.019725D-03
 Lowest energy point so far.  Saving SCF results.
 GradGradGradGradGradGradGradGradGradGradGradGradGradGradGradGradGradGrad

 Leave Link  103 at Sun Jan 28 02:33:08 2024, MaxMem=   104857600 cpu:               0.0 elap:               0.0
 (Enter /apps/gaussian/g16-c01-avx2/g16/l202.exe)
                          Input orientation:                          
 ---------------------------------------------------------------------
 Center     Atomic      Atomic             Coordinates (Angstroms)
 Number     Number       Type             X           Y           Z
 ---------------------------------------------------------------------
      1          8           0       -0.059103    0.000000   -0.041792
      2          1           0        0.058442   -0.000000    0.940039
      3          1           0        0.905758    0.000000   -0.258247
 ---------------------------------------------------------------------
                    Distance matrix (angstroms):
                    1          2          3
     1  O    0.000000
     2  H    0.988842   0.000000
     3  H    0.988842   1.467594   0.000000
 Stoichiometry    H2O
 Framework group  C2V[C2(O),SGV(H2)]
 Deg. of freedom     2
 Full point group                 C2V     NOp   4
 RotChk:  IX=0 Diff= 5.41D-16
 Largest Abelian subgroup         C2V     NOp   4
 Largest concise Abelian subgroup C2      NOp   2
                         Standard orientation:                         
 ---------------------------------------------------------------------
 Center     Atomic      Atomic             Coordinates (Angstroms)
 Number     Number       Type             X           Y           Z
 ---------------------------------------------------------------------
      1          8           0        0.000000    0.000000    0.132567
      2          1           0        0.000000    0.733797   -0.530268
      3          1           0       -0.000000   -0.733797   -0.530268
 ---------------------------------------------------------------------
 Rotational constants (GHZ):         642.5945370         465.6399673         269.9949316
 Leave Link  202 at Sun Jan 28 02:33:08 2024, MaxMem=   104857600 cpu:               0.0 elap:               0.0
 (Enter /apps/gaussian/g16-c01-avx2/g16/l301.exe)
 Standard basis: STO-3G (5D, 7F)
 Ernie: Thresh=  0.10000D-02 Tol=  0.10000D-05 Strict=F.
 There are     4 symmetry adapted cartesian basis functions of A1  symmetry.
 There are     0 symmetry adapted cartesian basis functions of A2  symmetry.
 There are     1 symmetry adapted cartesian basis functions of B1  symmetry.
 There are     2 symmetry adapted cartesian basis functions of B2  symmetry.
 There are     4 symmetry adapted basis functions of A1  symmetry.
 There are     0 symmetry adapted basis functions of A2  symmetry.
 There are     1 symmetry adapted basis functions of B1  symmetry.
 There are     2 symmetry adapted basis functions of B2  symmetry.
     7 basis functions,    21 primitive gaussians,     7 cartesian basis functions
     5 alpha electrons        5 beta electrons
       nuclear repulsion energy         8.9229522165 Hartrees.
 IExCor=    0 DFT=F Ex=HF Corr=None ExCW=0 ScaHFX=  1.000000
 ScaDFX=  1.000000  1.000000  1.000000  1.000000 ScalE2=  1.000000  1.000000
 IRadAn=      5 IRanWt=     -1 IRanGd=            0 ICorTp=0 IEmpDi=  4
 NAtoms=    3 NActive=    3 NUniq=    2 SFac= 2.25D+00 NAtFMM=   60 NAOKFM=F Big=F
 Integral buffers will be    131072 words long.
 Raffenetti 1 integral format.
 Two-electron integral symmetry is turned on.
 Leave Link  301 at Sun Jan 28 02:33:08 2024, MaxMem=   104857600 cpu:               0.0 elap:               0.0
 (Enter /apps/gaussian/g16-c01-avx2/g16/l302.exe)
 NPDir=0 NMtPBC=     1 NCelOv=     1 NCel=       1 NClECP=     1 NCelD=      1
         NCelK=      1 NCelE2=     1 NClLst=     1 CellRange=     0.0.
 One-electron integrals computed using PRISM.
 One-electron integral symmetry used in STVInt
 NBasis=     7 RedAO= T EigKep=  3.63D-01  NBF=     4     0     1     2
 NBsUse=     7 1.00D-06 EigRej= -1.00D+00 NBFU=     4     0     1     2
 Leave Link  302 at Sun Jan 28 02:33:08 2024, MaxMem=   104857600 cpu:               0.0 elap:               0.1
 (Enter /apps/gaussian/g16-c01-avx2/g16/l303.exe)
 DipDrv:  MaxL=1.
 Leave Link  303 at Sun Jan 28 02:33:08 2024, MaxMem=   104857600 cpu:               0.0 elap:               0.0
 (Enter /apps/gaussian/g16-c01-avx2/g16/l320.exe)
 Enter DskPsm, NBasis=   7 NBas6D=   7 NShell=   4 IDoSP=3.
 Generating unsorted Raff 1 combos
 Use symmetry via Dacre-Elder procedure.
 NGot=   104595408 Memory for integrals=   104592169 for sort=           0.
 Out2e will use a cutoff of  1.00D-10
          141 integrals produced for a total of          141.
 Leave Link  320 at Sun Jan 28 02:33:08 2024, MaxMem=   104857600 cpu:               0.0 elap:               0.1
 (Enter /apps/gaussian/g16-c01-avx2/g16/l401.exe)
 Initial guess from the checkpoint file:  "/rds/general/user/rk820/home/run_g16/test009_16_savechk.chk"
 B after Tr=     0.000000   -0.000000    0.000000
         Rot=    1.000000   -0.000000   -0.000000    0.000000 Ang=   0.00 deg.
 Guess basis will be translated and rotated to current coordinates.
 JPrj=2 DoOrth=T DoCkMO=T.
 Initial guess orbital symmetries:
       Occupied  (A1) (A1) (B2) (A1) (B1)
       Virtual   (A1) (B2)
 The electronic state of the initial guess is 1-A1.
 Generating alternative initial guess.
 ExpMin= 1.69D-01 ExpMax= 1.31D+02 ExpMxC= 1.31D+02 IAcc=3 IRadAn=         5 AccDes= 0.00D+00
 Harris functional with IExCor=  205 and IRadAn=       5 diagonalized for initial guess.
 HarFok:  IExCor=  205 AccDes= 0.00D+00 IRadAn=         5 IDoV= 1 UseB2=F ITyADJ=14
 ICtDFT=  3500011 ScaDFX=  1.000000  1.000000  1.000000  1.000000
 FoFCou: FMM=F IPFlag=           0 FMFlag=      100000 FMFlg1=           0
         NFxFlg=           0 DoJE=T BraDBF=F KetDBF=T FulRan=T
         wScrn=  0.000000 ICntrl=       500 IOpCl=  0 I1Cent=   200000004 NGrid=           0
         NMat0=    1 NMatS0=      1 NMatT0=    0 NMatD0=    1 NMtDS0=    0 NMtDT0=    0
 Petite list used in FoFCou.
 Harris En= -75.0357633144653    
 Leave Link  401 at Sun Jan 28 02:33:08 2024, MaxMem=   104857600 cpu:               0.1 elap:               0.1
 (Enter /apps/gaussian/g16-c01-avx2/g16/l502.exe)
 Two-electron integrals will be kept in memory, NGetB=      262522.
 Integral symmetry usage will be decided dynamically.
 Closed shell SCF:
 Using DIIS extrapolation, IDIIS=  1040.
 NGot=   104857600 LenX=   104593901 LenY=   104593019
 Requested convergence on RMS density matrix=1.00D-08 within 128 cycles.
 Requested convergence on MAX density matrix=1.00D-06.
 Requested convergence on             energy=1.00D-06.
 No special actions if energy rises.

 Cycle   1  Pass 1  IDiag  1:
 E= -74.9626042700770    
 DIIS: error= 1.18D-02 at cycle   1 NSaved=   1.
 NSaved= 1 IEnMin= 1 EnMin= -74.9626042700770     IErMin= 1 ErrMin= 1.18D-02
 ErrMax= 1.18D-02  0.00D+00 EMaxC= 1.00D-01 BMatC= 9.32D-04 BMatP= 9.32D-04
 IDIUse=3 WtCom= 8.82D-01 WtEn= 1.18D-01
 Coeff-Com:  0.100D+01
 Coeff-En:   0.100D+01
 Coeff:      0.100D+01
 Recover alternate guess density for next cycle.
 RMSDP=3.46D-02 MaxDP=1.42D-01              OVMax= 0.00D+00

 Cycle   2  Pass 1  IDiag  1:
 E= -74.9097834251532     Delta-E=        0.052820844924 Rises=F Damp=F
 Switch densities from cycles 1 and 2 for lowest energy.
 DIIS: error= 7.53D-02 at cycle   2 NSaved=   2.
 NSaved= 2 IEnMin= 1 EnMin= -74.9626042700770     IErMin= 1 ErrMin= 1.18D-02
 ErrMax= 7.53D-02  0.00D+00 EMaxC= 1.00D+00 BMatC= 3.97D-02 BMatP= 9.32D-04
 IDIUse=1 WtCom= 1.00D+00 WtEn= 0.00D+00
 Coeff-Com:  0.107D+01-0.739D-01
 Coeff:      0.107D+01-0.739D-01
 Gap=     0.974 Goal=   None    Shift=    0.000
 RMSDP=9.02D-03 MaxDP=3.02D-02 DE= 5.28D-02 OVMax= 0.00D+00

 Cycle   3  Pass 1  IDiag  1:
 E= -74.9646744681301     Delta-E=       -0.054891042977 Rises=F Damp=F
 DIIS: error= 3.83D-03 at cycle   3 NSaved=   3.
 NSaved= 3 IEnMin= 3 EnMin= -74.9646744681301     IErMin= 3 ErrMin= 3.83D-03
 ErrMax= 3.83D-03  0.00D+00 EMaxC= 1.00D+00 BMatC= 1.31D-04 BMatP= 9.32D-04
 IDIUse=1 WtCom= 1.00D+00 WtEn= 0.00D+00
 Coeff-Com: -0.726D+00 0.716D-01 0.165D+01
 Coeff:     -0.726D+00 0.716D-01 0.165D+01
 Gap=     0.982 Goal=   None    Shift=    0.000
 RMSDP=5.73D-03 MaxDP=1.77D-02 DE=-5.49D-02 OVMax= 0.00D+00

 Cycle   4  Pass 1  IDiag  1:
 E= -74.9650735027671     Delta-E=       -0.000399034637 Rises=F Damp=F
 DIIS: error= 3.67D-04 at cycle   4 NSaved=   4.
 NSaved= 4 IEnMin= 4 EnMin= -74.9650735027671     IErMin= 4 ErrMin= 3.67D-04
 ErrMax= 3.67D-04  0.00D+00 EMaxC= 1.00D+00 BMatC= 8.85D-07 BMatP= 1.31D-04
 IDIUse=1 WtCom= 1.00D+00 WtEn= 0.00D+00
 Coeff-Com:  0.283D+00-0.265D-01-0.677D+00 0.142D+01
 Coeff:      0.283D+00-0.265D-01-0.677D+00 0.142D+01
 Gap=     0.983 Goal=   None    Shift=    0.000
 RMSDP=3.20D-04 MaxDP=1.05D-03 DE=-3.99D-04 OVMax= 0.00D+00

 Cycle   5  Pass 1  IDiag  1:
 E= -74.9650755845295     Delta-E=       -0.000002081762 Rises=F Damp=F
 DIIS: error= 2.53D-05 at cycle   5 NSaved=   5.
 NSaved= 5 IEnMin= 5 EnMin= -74.9650755845295     IErMin= 5 ErrMin= 2.53D-05
 ErrMax= 2.53D-05  0.00D+00 EMaxC= 1.00D+00 BMatC= 4.51D-09 BMatP= 8.85D-07
 IDIUse=1 WtCom= 1.00D+00 WtEn= 0.00D+00
 Coeff-Com:  0.430D-01-0.425D-02-0.103D+00 0.218D+00 0.846D+00
 Coeff:      0.430D-01-0.425D-02-0.103D+00 0.218D+00 0.846D+00
 Gap=     0.983 Goal=   None    Shift=    0.000
 RMSDP=1.28D-05 MaxDP=3.77D-05 DE=-2.08D-06 OVMax= 0.00D+00

 Cycle   6  Pass 1  IDiag  1:
 E= -74.9650755908334     Delta-E=       -0.000000006304 Rises=F Damp=F
 DIIS: error= 3.64D-06 at cycle   6 NSaved=   6.
 NSaved= 6 IEnMin= 6 EnMin= -74.9650755908334     IErMin= 6 ErrMin= 3.64D-06
 ErrMax= 3.64D-06  0.00D+00 EMaxC= 1.00D+00 BMatC= 9.44D-11 BMatP= 4.51D-09
 IDIUse=1 WtCom= 1.00D+00 WtEn= 0.00D+00
 Coeff-Com:  0.191D-03-0.592D-05-0.591D-03 0.306D-02-0.189D+00 0.119D+01
 Coeff:      0.191D-03-0.592D-05-0.591D-03 0.306D-02-0.189D+00 0.119D+01
 Gap=     0.983 Goal=   None    Shift=    0.000
 RMSDP=2.38D-06 MaxDP=6.26D-06 DE=-6.30D-09 OVMax= 0.00D+00

 Cycle   7  Pass 1  IDiag  1:
 E= -74.9650755909703     Delta-E=       -0.000000000137 Rises=F Damp=F
 DIIS: error= 1.42D-08 at cycle   7 NSaved=   7.
 NSaved= 7 IEnMin= 7 EnMin= -74.9650755909703     IErMin= 7 ErrMin= 1.42D-08
 ErrMax= 1.42D-08  0.00D+00 EMaxC= 1.00D+00 BMatC= 1.93D-15 BMatP= 9.44D-11
 IDIUse=1 WtCom= 1.00D+00 WtEn= 0.00D+00
 Coeff-Com:  0.184D-06-0.107D-07-0.170D-05 0.714D-05-0.763D-03 0.981D-03
 Coeff-Com:  0.100D+01
 Coeff:      0.184D-06-0.107D-07-0.170D-05 0.714D-05-0.763D-03 0.981D-03
 Coeff:      0.100D+01
 Gap=     0.983 Goal=   None    Shift=    0.000
 RMSDP=1.35D-08 MaxDP=4.29D-08 DE=-1.37D-10 OVMax= 0.00D+00

 Cycle   8  Pass 1  IDiag  1:
 E= -74.9650755909703     Delta-E=        0.000000000000 Rises=F Damp=F
 DIIS: error= 1.85D-11 at cycle   8 NSaved=   8.
 NSaved= 8 IEnMin= 7 EnMin= -74.9650755909703     IErMin= 8 ErrMin= 1.85D-11
 ErrMax= 1.85D-11  0.00D+00 EMaxC= 1.00D+00 BMatC= 2.05D-21 BMatP= 1.93D-15
 IDIUse=1 WtCom= 1.00D+00 WtEn= 0.00D+00
 Coeff-Com: -0.123D-10 0.620D-12 0.304D-10-0.101D-07 0.234D-05-0.852D-05
 Coeff-Com: -0.935D-03 0.100D+01
 Coeff:     -0.123D-10 0.620D-12 0.304D-10-0.101D-07 0.234D-05-0.852D-05
 Coeff:     -0.935D-03 0.100D+01
 Gap=     0.983 Goal=   None    Shift=    0.000
 RMSDP=9.83D-12 MaxDP=3.73D-11 DE= 5.68D-14 OVMax= 0.00D+00

 SCF Done:  E(RHF) =  -74.9650755910     A.U. after    8 cycles
            NFock=  8  Conv=0.98D-11     -V/T= 2.0059
 KE= 7.452440877389D+01 PE=-1.963619751576D+02 EE= 3.794953857619D+01
 Leave Link  502 at Sun Jan 28 02:33:08 2024, MaxMem=   104857600 cpu:               0.0 elap:               0.0
 (Enter /apps/gaussian/g16-c01-avx2/g16/l701.exe)
 ... and contract with generalized density number  0.
 Compute integral first derivatives.
 Leave Link  701 at Sun Jan 28 02:33:08 2024, MaxMem=   104857600 cpu:               0.1 elap:               0.1
 (Enter /apps/gaussian/g16-c01-avx2/g16/l702.exe)
 L702 exits ... SP integral derivatives will be done elsewhere.
 Leave Link  702 at Sun Jan 28 02:33:08 2024, MaxMem=   104857600 cpu:               0.0 elap:               0.0
 (Enter /apps/gaussian/g16-c01-avx2/g16/l703.exe)
 Integral derivatives from FoFJK, PRISM(SPDF).
 Compute integral first derivatives, UseDBF=F ICtDFT=           0.
 Calling FoFJK, ICntrl=      2127 FMM=F ISym2X=1 I1Cent= 0 IOpClX= 0 NMat=1 NMatS=1 NMatT=0.
 FoFJK:  IHMeth= 1 ICntrl=    2127 DoSepK=F KAlg= 0 I1Cent=           0 FoldK=F
 IRaf=         0 NMat=       1 IRICut=       1 DoRegI=T DoRafI=F ISym2E= 1 IDoP0=0 IntGTp=1.
 FoFCou: FMM=F IPFlag=           0 FMFlag=      100000 FMFlg1=         800
         NFxFlg=           0 DoJE=F BraDBF=F KetDBF=F FulRan=T
         wScrn=  0.000000 ICntrl=      2127 IOpCl=  0 I1Cent=           0 NGrid=           0
         NMat0=    1 NMatS0=      1 NMatT0=    0 NMatD0=    1 NMtDS0=    0 NMtDT0=    0
 Petite list used in FoFCou.
 Leave Link  703 at Sun Jan 28 02:33:08 2024, MaxMem=   104857600 cpu:               0.1 elap:               0.1
 (Enter /apps/gaussian/g16-c01-avx2/g16/l716.exe)
 Dipole        =-3.28864695D-17-2.22044605D-16-6.82176276D-01
 ***** Axes restored to original set *****
 -------------------------------------------------------------------
 Center     Atomic                   Forces (Hartrees/Bohr)
 Number     Number              X              Y              Z
 -------------------------------------------------------------------
      1        8           0.010736918    0.000000000    0.007592147
      2        1          -0.011588185   -0.000000000    0.004999947
      3        1           0.000851267   -0.000000000   -0.012592095
 -------------------------------------------------------------------
 Cartesian Forces:  Max     0.012592095 RMS     0.007389881
 Leave Link  716 at Sun Jan 28 02:33:08 2024, MaxMem=   104857600 cpu:               0.0 elap:               0.0
 (Enter /apps/gaussian/g16-c01-avx2/g16/l103.exe)

 GradGradGradGradGradGradGradGradGradGradGradGradGradGradGradGradGradGrad
 Berny optimization.
 Using GEDIIS/GDIIS optimizer.
 FormGI is forming the generalized inverse of G from B-inverse, IUseBI=4.
 Internal  Forces:  Max     0.022611233 RMS     0.013379100
 Search for a local minimum.
 Step number   2 out of a maximum of   20
 All quantities printed in internal units (Hartrees-Bohrs-Radians)
 RMS Force = .13379D-01 SwitMx=.10000D-02 MixMth= 1
 Mixed Optimization -- RFO/linear search
 Update second derivatives using D2CorX and points    1    2
 DE= -4.35D-03 DEPred=-7.02D-03 R= 6.20D-01
 TightC=F SS=  1.41D+00  RLast= 2.50D-01 DXNew= 5.0454D-01 7.5138D-01
 Trust test= 6.20D-01 RLast= 2.50D-01 DXMaxT set to 5.05D-01
 The second derivative matrix:
                          R1        R2        A1
           R1           0.52204
           R2          -0.03269   0.52204
           A1          -0.00292  -0.00292   0.26676
 ITU=  1  0
 Use linear search instead of GDIIS.
     Eigenvalues ---    0.26668   0.48943   0.55473
 RFO step:  Lambda=-5.84820921D-04 EMin= 2.66680290D-01
 Quartic linear search produced a step of -0.25883.
 Iteration  1 RMS(Cart)=  0.05212170 RMS(Int)=  0.00126205
 Iteration  2 RMS(Cart)=  0.00096248 RMS(Int)=  0.00000019
 Iteration  3 RMS(Cart)=  0.00000021 RMS(Int)=  0.00000000
 ITry= 1 IFail=0 DXMaxC= 5.56D-02 DCOld= 1.00D+10 DXMaxT= 5.05D-01 DXLimC= 3.00D+00 Rises=F
 ClnCor:  largest displacement from symmetrization is 1.74D-15 for atom     3.
 Variable       Old X    -DE/DX   Delta X   Delta X   Delta X     New X
                                 (Linear)    (Quad)   (Total)
    R1        1.86864   0.00359  -0.01411   0.02240   0.00829   1.87693
    R2        1.86864   0.00359  -0.01411   0.02240   0.00829   1.87693
    A1        1.67233   0.02261   0.06168   0.01917   0.08085   1.75318
         Item               Value     Threshold  Converged?
 Maximum Force            0.022611     0.000450     NO 
 RMS     Force            0.013379     0.000300     NO 
 Maximum Displacement     0.055572     0.001800     NO 
 RMS     Displacement     0.051727     0.001200     NO 
 Predicted change in Energy=-9.860208D-04
 Lowest energy point so far.  Saving SCF results.
 GradGradGradGradGradGradGradGradGradGradGradGradGradGradGradGradGradGrad

 Leave Link  103 at Sun Jan 28 02:33:08 2024, MaxMem=   104857600 cpu:               0.0 elap:               0.0
 (Enter /apps/gaussian/g16-c01-avx2/g16/l202.exe)
                          Input orientation:                          
 ---------------------------------------------------------------------
 Center     Atomic      Atomic             Coordinates (Angstroms)
 Number     Number       Type             X           Y           Z
 ---------------------------------------------------------------------
      1          8           0       -0.044193    0.000000   -0.031249
      2          1           0        0.033920   -0.000000    0.958904
      3          1           0        0.915370    0.000000   -0.287654
 ---------------------------------------------------------------------
                    Distance matrix (angstroms):
                    1          2          3
     1  O    0.000000
     2  H    0.993229   0.000000
     3  H    0.993229   1.526715   0.000000
 Stoichiometry    H2O
 Framework group  C2V[C2(O),SGV(H2)]
 Deg. of freedom     2
 Full point group                 C2V     NOp   4
 RotChk:  IX=0 Diff= 7.41D-16
 Largest Abelian subgroup         C2V     NOp   4
 Largest concise Abelian subgroup C2      NOp   2
                         Standard orientation:                         
 ---------------------------------------------------------------------
 Center     Atomic      Atomic             Coordinates (Angstroms)
 Number     Number       Type             X           Y           Z
 ---------------------------------------------------------------------
      1          8           0       -0.000000   -0.000000    0.127089
      2          1           0        0.000000    0.763358   -0.508356
      3          1           0       -0.000000   -0.763358   -0.508356
 ---------------------------------------------------------------------
 Rotational constants (GHZ):         699.1853052         430.2747805         266.3589511
 Leave Link  202 at Sun Jan 28 02:33:08 2024, MaxMem=   104857600 cpu:               0.0 elap:               0.0
 (Enter /apps/gaussian/g16-c01-avx2/g16/l301.exe)
 Standard basis: STO-3G (5D, 7F)
 Ernie: Thresh=  0.10000D-02 Tol=  0.10000D-05 Strict=F.
 There are     4 symmetry adapted cartesian basis functions of A1  symmetry.
 There are     0 symmetry adapted cartesian basis functions of A2  symmetry.
 There are     1 symmetry adapted cartesian basis functions of B1  symmetry.
 There are     2 symmetry adapted cartesian basis functions of B2  symmetry.
 There are     4 symmetry adapted basis functions of A1  symmetry.
 There are     0 symmetry adapted basis functions of A2  symmetry.
 There are     1 symmetry adapted basis functions of B1  symmetry.
 There are     2 symmetry adapted basis functions of B2  symmetry.
     7 basis functions,    21 primitive gaussians,     7 cartesian basis functions
     5 alpha electrons        5 beta electrons
       nuclear repulsion energy         8.8711634425 Hartrees.
 IExCor=    0 DFT=F Ex=HF Corr=None ExCW=0 ScaHFX=  1.000000
 ScaDFX=  1.000000  1.000000  1.000000  1.000000 ScalE2=  1.000000  1.000000
 IRadAn=      5 IRanWt=     -1 IRanGd=            0 ICorTp=0 IEmpDi=  4
 NAtoms=    3 NActive=    3 NUniq=    2 SFac= 2.25D+00 NAtFMM=   60 NAOKFM=F Big=F
 Integral buffers will be    131072 words long.
 Raffenetti 1 integral format.
 Two-electron integral symmetry is turned on.
 Leave Link  301 at Sun Jan 28 02:33:08 2024, MaxMem=   104857600 cpu:               0.1 elap:               0.0
 (Enter /apps/gaussian/g16-c01-avx2/g16/l302.exe)
 NPDir=0 NMtPBC=     1 NCelOv=     1 NCel=       1 NClECP=     1 NCelD=      1
         NCelK=      1 NCelE2=     1 NClLst=     1 CellRange=     0.0.
 One-electron integrals computed using PRISM.
 One-electron integral symmetry used in STVInt
 NBasis=     7 RedAO= T EigKep=  3.66D-01  NBF=     4     0     1     2
 NBsUse=     7 1.00D-06 EigRej= -1.00D+00 NBFU=     4     0     1     2
 Leave Link  302 at Sun Jan 28 02:33:08 2024, MaxMem=   104857600 cpu:               0.0 elap:               0.1
 (Enter /apps/gaussian/g16-c01-avx2/g16/l303.exe)
 DipDrv:  MaxL=1.
 Leave Link  303 at Sun Jan 28 02:33:08 2024, MaxMem=   104857600 cpu:               0.0 elap:               0.0
 (Enter /apps/gaussian/g16-c01-avx2/g16/l320.exe)
 Enter DskPsm, NBasis=   7 NBas6D=   7 NShell=   4 IDoSP=3.
 Generating unsorted Raff 1 combos
 Use symmetry via Dacre-Elder procedure.
 NGot=   104595408 Memory for integrals=   104592169 for sort=           0.
 Out2e will use a cutoff of  1.00D-10
          141 integrals produced for a total of          141.
 Leave Link  320 at Sun Jan 28 02:33:09 2024, MaxMem=   104857600 cpu:               0.1 elap:               0.1
 (Enter /apps/gaussian/g16-c01-avx2/g16/l401.exe)
 Initial guess from the checkpoint file:  "/rds/general/user/rk820/home/run_g16/test009_16_savechk.chk"
 B after Tr=    -0.000000    0.000000    0.000000
         Rot=    1.000000   -0.000000   -0.000000   -0.000000 Ang=   0.00 deg.
 Guess basis will be translated and rotated to current coordinates.
 JPrj=2 DoOrth=T DoCkMO=T.
 Initial guess orbital symmetries:
       Occupied  (A1) (A1) (B2) (A1) (B1)
       Virtual   (A1) (B2)
 The electronic state of the initial guess is 1-A1.
 Generating alternative initial guess.
 ExpMin= 1.69D-01 ExpMax= 1.31D+02 ExpMxC= 1.31D+02 IAcc=3 IRadAn=         5 AccDes= 0.00D+00
 Harris functional with IExCor=  205 and IRadAn=       5 diagonalized for initial guess.
 HarFok:  IExCor=  205 AccDes= 0.00D+00 IRadAn=         5 IDoV= 1 UseB2=F ITyADJ=14
 ICtDFT=  3500011 ScaDFX=  1.000000  1.000000  1.000000  1.000000
 FoFCou: FMM=F IPFlag=           0 FMFlag=      100000 FMFlg1=           0
         NFxFlg=           0 DoJE=T BraDBF=F KetDBF=T FulRan=T
         wScrn=  0.000000 ICntrl=       500 IOpCl=  0 I1Cent=   200000004 NGrid=           0
         NMat0=    1 NMatS0=      1 NMatT0=    0 NMatD0=    1 NMtDS0=    0 NMtDT0=    0
 Petite list used in FoFCou.
 Harris En= -75.0376206928008    
 Leave Link  401 at Sun Jan 28 02:33:09 2024, MaxMem=   104857600 cpu:               0.1 elap:               0.1
 (Enter /apps/gaussian/g16-c01-avx2/g16/l502.exe)
 Two-electron integrals will be kept in memory, NGetB=      262522.
 Integral symmetry usage will be decided dynamically.
 Closed shell SCF:
 Using DIIS extrapolation, IDIIS=  1040.
 NGot=   104857600 LenX=   104593901 LenY=   104593019
 Requested convergence on RMS density matrix=1.00D-08 within 128 cycles.
 Requested convergence on MAX density matrix=1.00D-06.
 Requested convergence on             energy=1.00D-06.
 No special actions if energy rises.

 Cycle   1  Pass 1  IDiag  1:
 E= -74.9657366138811    
 DIIS: error= 2.40D-03 at cycle   1 NSaved=   1.
 NSaved= 1 IEnMin= 1 EnMin= -74.9657366138811     IErMin= 1 ErrMin= 2.40D-03
 ErrMax= 2.40D-03  0.00D+00 EMaxC= 1.00D-01 BMatC= 4.12D-05 BMatP= 4.12D-05
 IDIUse=3 WtCom= 9.76D-01 WtEn= 2.40D-02
 Coeff-Com:  0.100D+01
 Coeff-En:   0.100D+01
 Coeff:      0.100D+01
 Gap=     0.972 Goal=   None    Shift=    0.000
 GapD=    0.972 DampG=2.000 DampE=1.000 DampFc=2.0000 IDamp=-1.
 RMSDP=2.00D-03 MaxDP=6.59D-03              OVMax= 0.00D+00

 Cycle   2  Pass 1  IDiag  1:
 E= -74.9658353233730     Delta-E=       -0.000098709492 Rises=F Damp=F
 DIIS: error= 8.69D-04 at cycle   2 NSaved=   2.
 NSaved= 2 IEnMin= 2 EnMin= -74.9658353233730     IErMin= 2 ErrMin= 8.69D-04
 ErrMax= 8.69D-04  0.00D+00 EMaxC= 1.00D-01 BMatC= 7.00D-06 BMatP= 4.12D-05
 IDIUse=3 WtCom= 9.91D-01 WtEn= 8.69D-03
 Coeff-Com: -0.511D+00 0.151D+01
 Coeff-En:   0.000D+00 0.100D+01
 Coeff:     -0.507D+00 0.151D+01
 Gap=     0.969 Goal=   None    Shift=    0.000
 RMSDP=1.19D-03 MaxDP=3.75D-03 DE=-9.87D-05 OVMax= 0.00D+00

 Cycle   3  Pass 1  IDiag  1:
 E= -74.9658563428855     Delta-E=       -0.000021019513 Rises=F Damp=F
 DIIS: error= 1.25D-04 at cycle   3 NSaved=   3.
 NSaved= 3 IEnMin= 3 EnMin= -74.9658563428855     IErMin= 3 ErrMin= 1.25D-04
 ErrMax= 1.25D-04  0.00D+00 EMaxC= 1.00D-01 BMatC= 1.85D-07 BMatP= 7.00D-06
 IDIUse=3 WtCom= 9.99D-01 WtEn= 1.25D-03
 Coeff-Com: -0.159D-01-0.102D+00 0.112D+01
 Coeff-En:   0.000D+00 0.000D+00 0.100D+01
 Coeff:     -0.158D-01-0.102D+00 0.112D+01
 Gap=     0.970 Goal=   None    Shift=    0.000
 RMSDP=1.91D-04 MaxDP=6.43D-04 DE=-2.10D-05 OVMax= 0.00D+00

 Cycle   4  Pass 1  IDiag  1:
 E= -74.9658569139881     Delta-E=       -0.000000571103 Rises=F Damp=F
 DIIS: error= 2.77D-05 at cycle   4 NSaved=   4.
 NSaved= 4 IEnMin= 4 EnMin= -74.9658569139881     IErMin= 4 ErrMin= 2.77D-05
 ErrMax= 2.77D-05  0.00D+00 EMaxC= 1.00D-01 BMatC= 5.39D-09 BMatP= 1.85D-07
 IDIUse=1 WtCom= 1.00D+00 WtEn= 0.00D+00
 Coeff-Com:  0.141D-01-0.161D-01-0.243D+00 0.124D+01
 Coeff:      0.141D-01-0.161D-01-0.243D+00 0.124D+01
 Gap=     0.970 Goal=   None    Shift=    0.000
 RMSDP=2.46D-05 MaxDP=7.85D-05 DE=-5.71D-07 OVMax= 0.00D+00

 Cycle   5  Pass 1  IDiag  1:
 E= -74.9658569266615     Delta-E=       -0.000000012673 Rises=F Damp=F
 DIIS: error= 1.59D-06 at cycle   5 NSaved=   5.
 NSaved= 5 IEnMin= 5 EnMin= -74.9658569266615     IErMin= 5 ErrMin= 1.59D-06
 ErrMax= 1.59D-06  0.00D+00 EMaxC= 1.00D-01 BMatC= 1.91D-11 BMatP= 5.39D-09
 IDIUse=1 WtCom= 1.00D+00 WtEn= 0.00D+00
 Coeff-Com: -0.831D-03 0.362D-02-0.520D-02-0.596D-01 0.106D+01
 Coeff:     -0.831D-03 0.362D-02-0.520D-02-0.596D-01 0.106D+01
 Gap=     0.970 Goal=   None    Shift=    0.000
 RMSDP=8.33D-07 MaxDP=2.90D-06 DE=-1.27D-08 OVMax= 0.00D+00

 Cycle   6  Pass 1  IDiag  1:
 E= -74.9658569266855     Delta-E=       -0.000000000024 Rises=F Damp=F
 DIIS: error= 2.29D-09 at cycle   6 NSaved=   6.
 NSaved= 6 IEnMin= 6 EnMin= -74.9658569266855     IErMin= 6 ErrMin= 2.29D-09
 ErrMax= 2.29D-09  0.00D+00 EMaxC= 1.00D-01 BMatC= 4.90D-17 BMatP= 1.91D-11
 IDIUse=1 WtCom= 1.00D+00 WtEn= 0.00D+00
 Coeff-Com: -0.445D-08 0.416D-06-0.285D-04 0.185D-03-0.111D-02 0.100D+01
 Coeff:     -0.445D-08 0.416D-06-0.285D-04 0.185D-03-0.111D-02 0.100D+01
 Gap=     0.970 Goal=   None    Shift=    0.000
 RMSDP=2.21D-09 MaxDP=7.10D-09 DE=-2.40D-11 OVMax= 0.00D+00

 SCF Done:  E(RHF) =  -74.9658569267     A.U. after    6 cycles
            NFock=  6  Conv=0.22D-08     -V/T= 2.0061
 KE= 7.451035789199D+01 PE=-1.962844148485D+02 EE= 3.793703658735D+01
 Leave Link  502 at Sun Jan 28 02:33:09 2024, MaxMem=   104857600 cpu:               0.0 elap:               0.0
 (Enter /apps/gaussian/g16-c01-avx2/g16/l701.exe)
 ... and contract with generalized density number  0.
 Compute integral first derivatives.
 Leave Link  701 at Sun Jan 28 02:33:09 2024, MaxMem=   104857600 cpu:               0.1 elap:               0.1
 (Enter /apps/gaussian/g16-c01-avx2/g16/l702.exe)
 L702 exits ... SP integral derivatives will be done elsewhere.
 Leave Link  702 at Sun Jan 28 02:33:09 2024, MaxMem=   104857600 cpu:               0.0 elap:               0.0
 (Enter /apps/gaussian/g16-c01-avx2/g16/l703.exe)
 Integral derivatives from FoFJK, PRISM(SPDF).
 Compute integral first derivatives, UseDBF=F ICtDFT=           0.
 Calling FoFJK, ICntrl=      2127 FMM=F ISym2X=1 I1Cent= 0 IOpClX= 0 NMat=1 NMatS=1 NMatT=0.
 FoFJK:  IHMeth= 1 ICntrl=    2127 DoSepK=F KAlg= 0 I1Cent=           0 FoldK=F
 IRaf=         0 NMat=       1 IRICut=       1 DoRegI=T DoRafI=F ISym2E= 1 IDoP0=0 IntGTp=1.
 FoFCou: FMM=F IPFlag=           0 FMFlag=      100000 FMFlg1=         800
         NFxFlg=           0 DoJE=F BraDBF=F KetDBF=F FulRan=T
         wScrn=  0.000000 ICntrl=      2127 IOpCl=  0 I1Cent=           0 NGrid=           0
         NMat0=    1 NMatS0=      1 NMatT0=    0 NMatD0=    1 NMtDS0=    0 NMtDT0=    0
 Petite list used in FoFCou.
 Leave Link  703 at Sun Jan 28 02:33:09 2024, MaxMem=   104857600 cpu:               0.1 elap:               0.1
 (Enter /apps/gaussian/g16-c01-avx2/g16/l716.exe)
 Dipole        =-3.44577392D-17 0.00000000D+00-6.69385407D-01
 ***** Axes restored to original set *****
 -------------------------------------------------------------------
 Center     Atomic                   Forces (Hartrees/Bohr)
 Number     Number              X              Y              Z
 -------------------------------------------------------------------
      1        8           0.003118425    0.000000000    0.002205060
      2        1           0.001072358   -0.000000000   -0.004824133
      3        1          -0.004190783   -0.000000000    0.002619073
 -------------------------------------------------------------------
 Cartesian Forces:  Max     0.004824133 RMS     0.002654792
 Leave Link  716 at Sun Jan 28 02:33:09 2024, MaxMem=   104857600 cpu:               0.0 elap:               0.0
 (Enter /apps/gaussian/g16-c01-avx2/g16/l103.exe)

 GradGradGradGradGradGradGradGradGradGradGradGradGradGradGradGradGradGrad
 Berny optimization.
 Using GEDIIS/GDIIS optimizer.
 FormGI is forming the generalized inverse of G from B-inverse, IUseBI=4.
 Internal  Forces:  Max     0.004724854 RMS     0.004164907
 Search for a local minimum.
 Step number   3 out of a maximum of   20
 All quantities printed in internal units (Hartrees-Bohrs-Radians)
 RMS Force = .41649D-02 SwitMx=.10000D-02 MixMth= 1
 Mixed Optimization -- RFO/linear search
 Update second derivatives using D2CorX and points    1    2    3
 DE= -7.81D-04 DEPred=-9.86D-04 R= 7.92D-01
 TightC=F SS=  1.41D+00  RLast= 8.17D-02 DXNew= 8.4853D-01 2.4509D-01
 Trust test= 7.92D-01 RLast= 8.17D-02 DXMaxT set to 5.05D-01
 The second derivative matrix:
                          R1        R2        A1
           R1           0.57322
           R2           0.01848   0.57322
           A1           0.04212   0.04212   0.30465
 ITU=  1  1  0
 Use linear search instead of GDIIS.
     Eigenvalues ---    0.29278   0.55473   0.60357
 RFO step:  Lambda=-4.81307969D-05 EMin= 2.92780596D-01
 Quartic linear search produced a step of -0.14084.
 Iteration  1 RMS(Cart)=  0.00824954 RMS(Int)=  0.00001949
 Iteration  2 RMS(Cart)=  0.00001445 RMS(Int)=  0.00000000
 Iteration  3 RMS(Cart)=  0.00000000 RMS(Int)=  0.00000000
 ITry= 1 IFail=0 DXMaxC= 8.32D-03 DCOld= 1.00D+10 DXMaxT= 5.05D-01 DXLimC= 3.00D+00 Rises=F
 ClnCor:  largest displacement from symmetrization is 1.04D-14 for atom     3.
 Variable       Old X    -DE/DX   Delta X   Delta X   Delta X     New X
                                 (Linear)    (Quad)   (Total)
    R1        1.87693  -0.00472  -0.00117  -0.00632  -0.00749   1.86944
    R2        1.87693  -0.00472  -0.00117  -0.00632  -0.00749   1.86944
    A1        1.75318  -0.00272  -0.01139   0.00415  -0.00724   1.74594
         Item               Value     Threshold  Converged?
 Maximum Force            0.004725     0.000450     NO 
 RMS     Force            0.004165     0.000300     NO 
 Maximum Displacement     0.008319     0.001800     NO 
 RMS     Displacement     0.008244     0.001200     NO 
 Predicted change in Energy=-4.471369D-05
 Lowest energy point so far.  Saving SCF results.
 GradGradGradGradGradGradGradGradGradGradGradGradGradGradGradGradGradGrad

 Leave Link  103 at Sun Jan 28 02:33:09 2024, MaxMem=   104857600 cpu:               0.0 elap:               0.0
 (Enter /apps/gaussian/g16-c01-avx2/g16/l202.exe)
                          Input orientation:                          
 ---------------------------------------------------------------------
 Center     Atomic      Atomic             Coordinates (Angstroms)
 Number     Number       Type             X           Y           Z
 ---------------------------------------------------------------------
      1          8           0       -0.044309   -0.000000   -0.031331
      2          1           0        0.037062   -0.000000    0.954583
      3          1           0        0.912343    0.000000   -0.283252
 ---------------------------------------------------------------------
                    Distance matrix (angstroms):
                    1          2          3
     1  O    0.000000
     2  H    0.989266   0.000000
     3  H    0.989266   1.516032   0.000000
 Stoichiometry    H2O
 Framework group  C2V[C2(O),SGV(H2)]
 Deg. of freedom     2
 Full point group                 C2V     NOp   4
 RotChk:  IX=0 Diff= 1.13D-15
 Largest Abelian subgroup         C2V     NOp   4
 Largest concise Abelian subgroup C2      NOp   2
                         Standard orientation:                         
 ---------------------------------------------------------------------
 Center     Atomic      Atomic             Coordinates (Angstroms)
 Number     Number       Type             X           Y           Z
 ---------------------------------------------------------------------
      1          8           0       -0.000000    0.000000    0.127131
      2          1           0       -0.000000    0.758016   -0.508525
      3          1           0       -0.000000   -0.758016   -0.508525
 ---------------------------------------------------------------------
 Rotational constants (GHZ):         698.7194691         436.3603066         268.6097033
 Leave Link  202 at Sun Jan 28 02:33:09 2024, MaxMem=   104857600 cpu:               0.0 elap:               0.0
 (Enter /apps/gaussian/g16-c01-avx2/g16/l301.exe)
 Standard basis: STO-3G (5D, 7F)
 Ernie: Thresh=  0.10000D-02 Tol=  0.10000D-05 Strict=F.
 There are     4 symmetry adapted cartesian basis functions of A1  symmetry.
 There are     0 symmetry adapted cartesian basis functions of A2  symmetry.
 There are     1 symmetry adapted cartesian basis functions of B1  symmetry.
 There are     2 symmetry adapted cartesian basis functions of B2  symmetry.
 There are     4 symmetry adapted basis functions of A1  symmetry.
 There are     0 symmetry adapted basis functions of A2  symmetry.
 There are     1 symmetry adapted basis functions of B1  symmetry.
 There are     2 symmetry adapted basis functions of B2  symmetry.
     7 basis functions,    21 primitive gaussians,     7 cartesian basis functions
     5 alpha electrons        5 beta electrons
       nuclear repulsion energy         8.9077586556 Hartrees.
 IExCor=    0 DFT=F Ex=HF Corr=None ExCW=0 ScaHFX=  1.000000
 ScaDFX=  1.000000  1.000000  1.000000  1.000000 ScalE2=  1.000000  1.000000
 IRadAn=      5 IRanWt=     -1 IRanGd=            0 ICorTp=0 IEmpDi=  4
 NAtoms=    3 NActive=    3 NUniq=    2 SFac= 2.25D+00 NAtFMM=   60 NAOKFM=F Big=F
 Integral buffers will be    131072 words long.
 Raffenetti 1 integral format.
 Two-electron integral symmetry is turned on.
 Leave Link  301 at Sun Jan 28 02:33:09 2024, MaxMem=   104857600 cpu:               0.0 elap:               0.0
 (Enter /apps/gaussian/g16-c01-avx2/g16/l302.exe)
 NPDir=0 NMtPBC=     1 NCelOv=     1 NCel=       1 NClECP=     1 NCelD=      1
         NCelK=      1 NCelE2=     1 NClLst=     1 CellRange=     0.0.
 One-electron integrals computed using PRISM.
 One-electron integral symmetry used in STVInt
 NBasis=     7 RedAO= T EigKep=  3.63D-01  NBF=     4     0     1     2
 NBsUse=     7 1.00D-06 EigRej= -1.00D+00 NBFU=     4     0     1     2
 Leave Link  302 at Sun Jan 28 02:33:09 2024, MaxMem=   104857600 cpu:               0.0 elap:               0.0
 (Enter /apps/gaussian/g16-c01-avx2/g16/l303.exe)
 DipDrv:  MaxL=1.
 Leave Link  303 at Sun Jan 28 02:33:09 2024, MaxMem=   104857600 cpu:               0.0 elap:               0.0
 (Enter /apps/gaussian/g16-c01-avx2/g16/l320.exe)
 Enter DskPsm, NBasis=   7 NBas6D=   7 NShell=   4 IDoSP=3.
 Generating unsorted Raff 1 combos
 Use symmetry via Dacre-Elder procedure.
 NGot=   104595408 Memory for integrals=   104592169 for sort=           0.
 Out2e will use a cutoff of  1.00D-10
          141 integrals produced for a total of          141.
 Leave Link  320 at Sun Jan 28 02:33:09 2024, MaxMem=   104857600 cpu:               0.1 elap:               0.0
 (Enter /apps/gaussian/g16-c01-avx2/g16/l401.exe)
 Initial guess from the checkpoint file:  "/rds/general/user/rk820/home/run_g16/test009_16_savechk.chk"
 B after Tr=     0.000000   -0.000000    0.000000
         Rot=    1.000000    0.000000    0.000000   -0.000000 Ang=   0.00 deg.
 Guess basis will be translated and rotated to current coordinates.
 JPrj=2 DoOrth=T DoCkMO=T.
 Initial guess orbital symmetries:
       Occupied  (A1) (A1) (B2) (A1) (B1)
       Virtual   (A1) (B2)
 The electronic state of the initial guess is 1-A1.
 Leave Link  401 at Sun Jan 28 02:33:09 2024, MaxMem=   104857600 cpu:               0.1 elap:               0.1
 (Enter /apps/gaussian/g16-c01-avx2/g16/l502.exe)
 Two-electron integrals will be kept in memory, NGetB=      262522.
 Integral symmetry usage will be decided dynamically.
 Closed shell SCF:
 Using DIIS extrapolation, IDIIS=  1040.
 NGot=   104857600 LenX=   104593901 LenY=   104593019
 Requested convergence on RMS density matrix=1.00D-08 within 128 cycles.
 Requested convergence on MAX density matrix=1.00D-06.
 Requested convergence on             energy=1.00D-06.
 No special actions if energy rises.

 Cycle   1  Pass 1  IDiag  1:
 E= -74.9658999783618    
 DIIS: error= 4.31D-04 at cycle   1 NSaved=   1.
 NSaved= 1 IEnMin= 1 EnMin= -74.9658999783618     IErMin= 1 ErrMin= 4.31D-04
 ErrMax= 4.31D-04  0.00D+00 EMaxC= 1.00D-01 BMatC= 2.01D-06 BMatP= 2.01D-06
 IDIUse=3 WtCom= 9.96D-01 WtEn= 4.31D-03
 Coeff-Com:  0.100D+01
 Coeff-En:   0.100D+01
 Coeff:      0.100D+01
 Gap=     0.975 Goal=   None    Shift=    0.000
 RMSDP=1.77D-04 MaxDP=5.74D-04              OVMax= 0.00D+00

 Cycle   2  Pass 1  IDiag  1:
 E= -74.9659011560082     Delta-E=       -0.000001177646 Rises=F Damp=F
 DIIS: error= 4.51D-05 at cycle   2 NSaved=   2.
 NSaved= 2 IEnMin= 2 EnMin= -74.9659011560082     IErMin= 2 ErrMin= 4.51D-05
 ErrMax= 4.51D-05  0.00D+00 EMaxC= 1.00D-01 BMatC= 1.25D-08 BMatP= 2.01D-06
 IDIUse=1 WtCom= 1.00D+00 WtEn= 0.00D+00
 Coeff-Com:  0.122D-01 0.988D+00
 Coeff:      0.122D-01 0.988D+00
 Gap=     0.975 Goal=   None    Shift=    0.000
 RMSDP=1.95D-05 MaxDP=8.15D-05 DE=-1.18D-06 OVMax= 0.00D+00

 Cycle   3  Pass 1  IDiag  1:
 E= -74.9659011703127     Delta-E=       -0.000000014305 Rises=F Damp=F
 DIIS: error= 5.16D-06 at cycle   3 NSaved=   3.
 NSaved= 3 IEnMin= 3 EnMin= -74.9659011703127     IErMin= 3 ErrMin= 5.16D-06
 ErrMax= 5.16D-06  0.00D+00 EMaxC= 1.00D-01 BMatC= 3.18D-10 BMatP= 1.25D-08
 IDIUse=1 WtCom= 1.00D+00 WtEn= 0.00D+00
 Coeff-Com: -0.371D-02 0.181D-01 0.986D+00
 Coeff:     -0.371D-02 0.181D-01 0.986D+00
 Gap=     0.975 Goal=   None    Shift=    0.000
 RMSDP=4.70D-06 MaxDP=1.77D-05 DE=-1.43D-08 OVMax= 0.00D+00

 Cycle   4  Pass 1  IDiag  1:
 E= -74.9659011710628     Delta-E=       -0.000000000750 Rises=F Damp=F
 DIIS: error= 2.27D-06 at cycle   4 NSaved=   4.
 NSaved= 4 IEnMin= 4 EnMin= -74.9659011710628     IErMin= 4 ErrMin= 2.27D-06
 ErrMax= 2.27D-06  0.00D+00 EMaxC= 1.00D-01 BMatC= 5.05D-11 BMatP= 3.18D-10
 IDIUse=1 WtCom= 1.00D+00 WtEn= 0.00D+00
 Coeff-Com:  0.238D-02-0.405D-01-0.614D+00 0.165D+01
 Coeff:      0.238D-02-0.405D-01-0.614D+00 0.165D+01
 Gap=     0.975 Goal=   None    Shift=    0.000
 RMSDP=3.37D-06 MaxDP=1.06D-05 DE=-7.50D-10 OVMax= 0.00D+00

 Cycle   5  Pass 1  IDiag  1:
 E= -74.9659011712220     Delta-E=       -0.000000000159 Rises=F Damp=F
 DIIS: error= 1.98D-07 at cycle   5 NSaved=   5.
 NSaved= 5 IEnMin= 5 EnMin= -74.9659011712220     IErMin= 5 ErrMin= 1.98D-07
 ErrMax= 1.98D-07  0.00D+00 EMaxC= 1.00D-01 BMatC= 2.59D-13 BMatP= 5.05D-11
 IDIUse=1 WtCom= 1.00D+00 WtEn= 0.00D+00
 Coeff-Com: -0.838D-03 0.133D-01 0.223D+00-0.619D+00 0.138D+01
 Coeff:     -0.838D-03 0.133D-01 0.223D+00-0.619D+00 0.138D+01
 Gap=     0.975 Goal=   None    Shift=    0.000
 RMSDP=2.20D-07 MaxDP=8.52D-07 DE=-1.59D-10 OVMax= 0.00D+00

 Cycle   6  Pass 1  IDiag  1:
 E= -74.9659011712225     Delta-E=       -0.000000000001 Rises=F Damp=F
 DIIS: error= 5.04D-12 at cycle   6 NSaved=   6.
 NSaved= 6 IEnMin= 6 EnMin= -74.9659011712225     IErMin= 6 ErrMin= 5.04D-12
 ErrMax= 5.04D-12  0.00D+00 EMaxC= 1.00D-01 BMatC= 2.36D-22 BMatP= 2.59D-13
 IDIUse=1 WtCom= 1.00D+00 WtEn= 0.00D+00
 Coeff-Com: -0.108D-07 0.212D-06 0.299D-05-0.107D-04 0.224D-04 0.100D+01
 Coeff:     -0.108D-07 0.212D-06 0.299D-05-0.107D-04 0.224D-04 0.100D+01
 Gap=     0.975 Goal=   None    Shift=    0.000
 RMSDP=7.45D-12 MaxDP=2.44D-11 DE=-5.40D-13 OVMax= 0.00D+00

 SCF Done:  E(RHF) =  -74.9659011712     A.U. after    6 cycles
            NFock=  6  Conv=0.75D-11     -V/T= 2.0060
 KE= 7.451890678426D+01 PE=-1.963553364067D+02 EE= 3.796276979563D+01
 Leave Link  502 at Sun Jan 28 02:33:09 2024, MaxMem=   104857600 cpu:               0.0 elap:               0.0
 (Enter /apps/gaussian/g16-c01-avx2/g16/l701.exe)
 ... and contract with generalized density number  0.
 Compute integral first derivatives.
 Leave Link  701 at Sun Jan 28 02:33:09 2024, MaxMem=   104857600 cpu:               0.0 elap:               0.1
 (Enter /apps/gaussian/g16-c01-avx2/g16/l702.exe)
 L702 exits ... SP integral derivatives will be done elsewhere.
 Leave Link  702 at Sun Jan 28 02:33:09 2024, MaxMem=   104857600 cpu:               0.0 elap:               0.0
 (Enter /apps/gaussian/g16-c01-avx2/g16/l703.exe)
 Integral derivatives from FoFJK, PRISM(SPDF).
 Compute integral first derivatives, UseDBF=F ICtDFT=           0.
 Calling FoFJK, ICntrl=      2127 FMM=F ISym2X=1 I1Cent= 0 IOpClX= 0 NMat=1 NMatS=1 NMatT=0.
 FoFJK:  IHMeth= 1 ICntrl=    2127 DoSepK=F KAlg= 0 I1Cent=           0 FoldK=F
 IRaf=         0 NMat=       1 IRICut=       1 DoRegI=T DoRafI=F ISym2E= 1 IDoP0=0 IntGTp=1.
 FoFCou: FMM=F IPFlag=           0 FMFlag=      100000 FMFlg1=         800
         NFxFlg=           0 DoJE=F BraDBF=F KetDBF=F FulRan=T
         wScrn=  0.000000 ICntrl=      2127 IOpCl=  0 I1Cent=           0 NGrid=           0
         NMat0=    1 NMatS0=      1 NMatT0=    0 NMatD0=    1 NMtDS0=    0 NMtDT0=    0
 Petite list used in FoFCou.
 Leave Link  703 at Sun Jan 28 02:33:09 2024, MaxMem=   104857600 cpu:               0.1 elap:               0.1
 (Enter /apps/gaussian/g16-c01-avx2/g16/l716.exe)
 Dipole        =-3.44564831D-17 0.00000000D+00-6.72515458D-01
 ***** Axes restored to original set *****
 -------------------------------------------------------------------
 Center     Atomic                   Forces (Hartrees/Bohr)
 Number     Number              X              Y              Z
 -------------------------------------------------------------------
      1        8          -0.000186218    0.000000000   -0.000131676
      2        1           0.000025078   -0.000000000    0.000162049
      3        1           0.000161141   -0.000000000   -0.000030373
 -------------------------------------------------------------------
 Cartesian Forces:  Max     0.000186218 RMS     0.000108420
 Leave Link  716 at Sun Jan 28 02:33:09 2024, MaxMem=   104857600 cpu:               0.0 elap:               0.0
 (Enter /apps/gaussian/g16-c01-avx2/g16/l103.exe)

 GradGradGradGradGradGradGradGradGradGradGradGradGradGradGradGradGradGrad
 Berny optimization.
 Using GEDIIS/GDIIS optimizer.
 FormGI is forming the generalized inverse of G from B-inverse, IUseBI=4.
 Internal  Forces:  Max     0.000163563 RMS     0.000134140
 Search for a local minimum.
 Step number   4 out of a maximum of   20
 All quantities printed in internal units (Hartrees-Bohrs-Radians)
 RMS Force = .13414D-03 SwitMx=.10000D-02 MixMth= 2
 Mixed Optimization -- En-DIIS/RFO-DIIS
 Update second derivatives using D2CorX and points    1    2    3    4
 DE= -4.42D-05 DEPred=-4.47D-05 R= 9.90D-01
 TightC=F SS=  1.41D+00  RLast= 1.28D-02 DXNew= 8.4853D-01 3.8487D-02
 Trust test= 9.90D-01 RLast= 1.28D-02 DXMaxT set to 5.05D-01
 The second derivative matrix:
                          R1        R2        A1
           R1           0.58777
           R2           0.03304   0.58777
           A1           0.03298   0.03298   0.30432
 ITU=  1  1  1  0
 Use linear search instead of GDIIS.
     Eigenvalues ---    0.29759   0.55473   0.62754
 RFO step:  Lambda=-3.49117985D-08 EMin= 2.97593205D-01
 Quartic linear search produced a step of -0.02446.
 Iteration  1 RMS(Cart)=  0.00016296 RMS(Int)=  0.00000001
 Iteration  2 RMS(Cart)=  0.00000001 RMS(Int)=  0.00000000
 ITry= 1 IFail=0 DXMaxC= 1.54D-04 DCOld= 1.00D+10 DXMaxT= 5.05D-01 DXLimC= 3.00D+00 Rises=F
 ClnCor:  largest displacement from symmetrization is 1.62D-15 for atom     3.
 Variable       Old X    -DE/DX   Delta X   Delta X   Delta X     New X
                                 (Linear)    (Quad)   (Total)
    R1        1.86944   0.00016   0.00018   0.00009   0.00027   1.86971
    R2        1.86944   0.00016   0.00018   0.00009   0.00027   1.86971
    A1        1.74594  -0.00002   0.00018  -0.00031  -0.00013   1.74581
         Item               Value     Threshold  Converged?
 Maximum Force            0.000164     0.000450     YES
 RMS     Force            0.000134     0.000300     YES
 Maximum Displacement     0.000154     0.001800     YES
 RMS     Displacement     0.000163     0.001200     YES
 Predicted change in Energy=-4.564213D-08
 Optimization completed.
    -- Stationary point found.
                           ----------------------------
                           !   Optimized Parameters   !
                           ! (Angstroms and Degrees)  !
 --------------------------                            --------------------------
 ! Name  Definition              Value          Derivative Info.                !
 --------------------------------------------------------------------------------
 ! R1    R(1,2)                  0.9893         -DE/DX =    0.0002              !
 ! R2    R(1,3)                  0.9893         -DE/DX =    0.0002              !
 ! A1    A(2,1,3)              100.035          -DE/DX =    0.0                 !
 --------------------------------------------------------------------------------
 Lowest energy point so far.  Saving SCF results.
 Largest change from initial coordinates is atom    2       0.070 Angstoms.
 GradGradGradGradGradGradGradGradGradGradGradGradGradGradGradGradGradGrad

 Leave Link  103 at Sun Jan 28 02:33:09 2024, MaxMem=   104857600 cpu:               0.0 elap:               0.0
 (Enter /apps/gaussian/g16-c01-avx2/g16/l202.exe)
                          Input orientation:                          
 ---------------------------------------------------------------------
 Center     Atomic      Atomic             Coordinates (Angstroms)
 Number     Number       Type             X           Y           Z
 ---------------------------------------------------------------------
      1          8           0       -0.044309   -0.000000   -0.031331
      2          1           0        0.037062   -0.000000    0.954583
      3          1           0        0.912343    0.000000   -0.283252
 ---------------------------------------------------------------------
                    Distance matrix (angstroms):
                    1          2          3
     1  O    0.000000
     2  H    0.989266   0.000000
     3  H    0.989266   1.516032   0.000000
 Stoichiometry    H2O
 Framework group  C2V[C2(O),SGV(H2)]
 Deg. of freedom     2
 Full point group                 C2V     NOp   4
 RotChk:  IX=0 Diff= 1.69D-15
 Largest Abelian subgroup         C2V     NOp   4
 Largest concise Abelian subgroup C2      NOp   2
                         Standard orientation:                         
 ---------------------------------------------------------------------
 Center     Atomic      Atomic             Coordinates (Angstroms)
 Number     Number       Type             X           Y           Z
 ---------------------------------------------------------------------
      1          8           0       -0.000000    0.000000    0.127131
      2          1           0       -0.000000    0.758016   -0.508525
      3          1           0       -0.000000   -0.758016   -0.508525
 ---------------------------------------------------------------------
 Rotational constants (GHZ):         698.7194691         436.3603066         268.6097033
 Leave Link  202 at Sun Jan 28 02:33:09 2024, MaxMem=   104857600 cpu:               0.0 elap:               0.0
 (Enter /apps/gaussian/g16-c01-avx2/g16/l601.exe)
 Copying SCF densities to generalized density rwf, IOpCl= 0 IROHF=0.

 **********************************************************************

            Population analysis using the SCF Density.

 **********************************************************************

 Orbital symmetries:
       Occupied  (A1) (A1) (B2) (A1) (B1)
       Virtual   (A1) (B2)
 The electronic state is 1-A1.
 Alpha  occ. eigenvalues --  -20.25155  -1.25761  -0.59394  -0.45973  -0.39262
 Alpha virt. eigenvalues --    0.58192   0.69286
          Condensed to atoms (all electrons):
               1          2          3
     1  O    7.822830   0.253918   0.253918
     2  H    0.253918   0.626169  -0.045420
     3  H    0.253918  -0.045420   0.626169
 Mulliken charges:
               1
     1  O   -0.330665
     2  H    0.165333
     3  H    0.165333
 Sum of Mulliken charges =  -0.00000
 Mulliken charges with hydrogens summed into heavy atoms:
               1
     1  O   -0.000000
 Electronic spatial extent (au):  <R**2>=             18.2666
 Charge=             -0.0000 electrons
 Dipole moment (field-independent basis, Debye):
    X=             -0.0000    Y=              0.0000    Z=             -1.7094  Tot=              1.7094
 Quadrupole moment (field-independent basis, Debye-Ang):
   XX=             -6.1255   YY=             -4.4854   ZZ=             -5.3333
   XY=              0.0000   XZ=              0.0000   YZ=             -0.0000
 Traceless Quadrupole moment (field-independent basis, Debye-Ang):
   XX=             -0.8108   YY=              0.8294   ZZ=             -0.0186
   XY=              0.0000   XZ=              0.0000   YZ=             -0.0000
 Octapole moment (field-independent basis, Debye-Ang**2):
  XXX=              0.0000  YYY=              0.0000  ZZZ=             -0.1746  XYY=             -0.0000
  XXY=              0.0000  XXZ=              0.0191  XZZ=              0.0000  YZZ=              0.0000
  YYZ=             -0.5314  XYZ=             -0.0000
 Hexadecapole moment (field-independent basis, Debye-Ang**3):
 XXXX=             -3.2652 YYYY=             -6.7323 ZZZZ=             -5.2185 XXXY=             -0.0000
 XXXZ=             -0.0000 YYYX=             -0.0000 YYYZ=             -0.0000 ZZZX=             -0.0000
 ZZZY=             -0.0000 XXYY=             -1.8082 XXZZ=             -1.4595 YYZZ=             -1.7388
 XXYZ=             -0.0000 YYXZ=              0.0000 ZZXY=             -0.0000
 N-N= 8.907758655551D+00 E-N=-1.963553364067D+02  KE= 7.451890678426D+01
 Symmetry A1   KE= 6.651724881720D+01
 Symmetry A2   KE= 0.000000000000D+00
 Symmetry B1   KE= 5.057462452019D+00
 Symmetry B2   KE= 2.944195515042D+00
 No NMR shielding tensors so no spin-rotation constants.
 Leave Link  601 at Sun Jan 28 02:33:10 2024, MaxMem=   104857600 cpu:               0.0 elap:               0.1
 (Enter /apps/gaussian/g16-c01-avx2/g16/l9999.exe)
 B after Tr=     0.058612    0.000000    0.041445
         Rot=    1.000000    0.000000   -0.000000    0.000000 Ang=   0.00 deg.
 Final structure in terms of initial Z-matrix:
 O
 H,1,R
 H,1,R,2,A
      Variables:
 R=0.98926599
 A=100.03502977

 Test job not archived.
 1\1\GINC-CX3-7-2\FOpt\RHF\STO-3G\H2O1\RK820\28-Jan-2024\0\\#P TEST OPT
  STO-3G scf=conventional\\Gaussian Test Job 16 STO-3G BERNY OPTIMIZATI
 ON OF WATER save .chk to read later for freq\\0,1\O,-0.0443085339,0.,-
 0.0313308648\H,0.0370618264,0.,0.9545829597\H,0.9123433875,0.,-0.28325
 20949\\Version=ES64L-G16RevC.01\State=1-A1\HF=-74.9659012\RMSD=7.454e-
 12\RMSF=1.084e-04\Dipole=0.5491066,0.,0.388277\Quadrupole=0.1963247,-0
 .6027962,0.4064715,0.,-0.2971925,0.\PG=C02V [C2(O1),SGV(H2)]\\@


 A MAN THINKING OR WORKING IS ALWAYS ALONE, 
 LET HIM BE WHERE HE WILL.

                                    -- THOREAU
 Job cpu time:       0 days  0 hours  0 minutes  2.6 seconds.
 Elapsed time:       0 days  0 hours  0 minutes  2.6 seconds.
 File lengths (MBytes):  RWF=      6 Int=      1 D2E=      0 Chk=     16 Scr=      1
 Normal termination of Gaussian 16 at Sun Jan 28 02:33:10 2024.
