 Entering Gaussian System, Link 0=g16
 Initial command:
 /apps/gaussian/g16-c01-avx2/g16/l1.exe "/var/tmp/pbs.8812234.pbs/Gau-3781678.inp" -scrdir="/var/tmp/pbs.8812234.pbs/"
 Entering Link 1 = /apps/gaussian/g16-c01-avx2/g16/l1.exe PID=   3781679.
  
 Copyright (c) 1988-2019, Gaussian, Inc.  All Rights Reserved.
  
 This is part of the Gaussian(R) 16 program.  It is based on
 the Gaussian(R) 09 system (copyright 2009, Gaussian, Inc.),
 the Gaussian(R) 03 system (copyright 2003, Gaussian, Inc.),
 the Gaussian(R) 98 system (copyright 1998, Gaussian, Inc.),
 the Gaussian(R) 94 system (copyright 1995, Gaussian, Inc.),
 the Gaussian 92(TM) system (copyright 1992, Gaussian, Inc.),
 the Gaussian 90(TM) system (copyright 1990, Gaussian, Inc.),
 the Gaussian 88(TM) system (copyright 1988, Gaussian, Inc.),
 the Gaussian 86(TM) system (copyright 1986, Carnegie Mellon
 University), and the Gaussian 82(TM) system (copyright 1983,
 Carnegie Mellon University). Gaussian is a federally registered
 trademark of Gaussian, Inc.
  
 This software contains proprietary and confidential information,
 including trade secrets, belonging to Gaussian, Inc.
  
 This software is provided under written license and may be
 used, copied, transmitted, or stored only in accord with that
 written license.
  
 The following legend is applicable only to US Government
 contracts under FAR:
  
                    RESTRICTED RIGHTS LEGEND
  
 Use, reproduction and disclosure by the US Government is
 subject to restrictions as set forth in subparagraphs (a)
 and (c) of the Commercial Computer Software - Restricted
 Rights clause in FAR 52.227-19.
  
 Gaussian, Inc.
 340 Quinnipiac St., Bldg. 40, Wallingford CT 06492
  
  
 ---------------------------------------------------------------
 Warning -- This program may not be used in any manner that
 competes with the business of Gaussian, Inc. or will provide
 assistance to any competitor of Gaussian, Inc.  The licensee
 of this program is prohibited from giving any competitor of
 Gaussian, Inc. access to this program.  By using this program,
 the user acknowledges that Gaussian, Inc. is engaged in the
 business of creating and licensing software in the field of
 computational chemistry and represents and warrants to the
 licensee that it is not a competitor of Gaussian, Inc. and that
 it will not use this program in any manner prohibited above.
 ---------------------------------------------------------------
  

 Cite this work as:
 Gaussian 16, Revision C.01,
 M. J. Frisch, G. W. Trucks, H. B. Schlegel, G. E. Scuseria, 
 M. A. Robb, J. R. Cheeseman, G. Scalmani, V. Barone, 
 G. A. Petersson, H. Nakatsuji, X. Li, M. Caricato, A. V. Marenich, 
 J. Bloino, B. G. Janesko, R. Gomperts, B. Mennucci, H. P. Hratchian, 
 J. V. Ortiz, A. F. Izmaylov, J. L. Sonnenberg, D. Williams-Young, 
 F. Ding, F. Lipparini, F. Egidi, J. Goings, B. Peng, A. Petrone, 
 T. Henderson, D. Ranasinghe, V. G. Zakrzewski, J. Gao, N. Rega, 
 G. Zheng, W. Liang, M. Hada, M. Ehara, K. Toyota, R. Fukuda, 
 J. Hasegawa, M. Ishida, T. Nakajima, Y. Honda, O. Kitao, H. Nakai, 
 T. Vreven, K. Throssell, J. A. Montgomery, Jr., J. E. Peralta, 
 F. Ogliaro, M. J. Bearpark, J. J. Heyd, E. N. Brothers, K. N. Kudin, 
 V. N. Staroverov, T. A. Keith, R. Kobayashi, J. Normand, 
 K. Raghavachari, A. P. Rendell, J. C. Burant, S. S. Iyengar, 
 J. Tomasi, M. Cossi, J. M. Millam, M. Klene, C. Adamo, R. Cammi, 
 J. W. Ochterski, R. L. Martin, K. Morokuma, O. Farkas, 
 J. B. Foresman, and D. J. Fox, Gaussian, Inc., Wallingford CT, 2019.
 
 ******************************************
 Gaussian 16:  ES64L-G16RevC.01  3-Jul-2019
                28-Jan-2024 
 ******************************************
 %oldchk=/rds/general/user/rk820/home/run_g16/test009_16_savechk.chk
 %chk=/rds/general/user/rk820/home/run_g16/test009_16_readchk.chk
 Copying data from "/rds/general/user/rk820/home/run_g16/test009_16_savechk.chk" to current chk file "/rds/general/user/rk820/home/run_g16/test009_16_readchk.chk"
 IOpt=  2 FromEx=T IUOpen= 4 IOptOp= 5 NList=   0 IFRang= 0 IUIn= 4 IUOut= 2.
 ------------------------------
 #P TEST freq STO-3G geom=check
 ------------------------------
 1/10=4,29=2,30=1,38=1/1,3;
 2/12=2,40=1/2;
 3/6=3,11=9,14=-4,25=1,30=1,71=2,140=1/1,2,3;
 4//1;
 5/5=2,38=5,98=1/2;
 8/6=4,10=90,11=11/1;
 10/13=10,15=4/2;
 11/6=3,8=1,9=11,15=111,16=1/1,2,10;
 10/6=1/2;
 6/7=2,8=2,9=2,10=2,28=1/1;
 7/8=1,10=1,25=1/1,2,3,16;
 1/10=4,30=1/3;
 99//99;
 Leave Link    1 at Sun Jan 28 02:35:30 2024, MaxMem=   104857600 cpu:               0.0 elap:               0.1
 (Enter /apps/gaussian/g16-c01-avx2/g16/l101.exe)
 ----------------------------------------------------------------------
 Gaussian Test Job 16 STO-3G BERNY OPTIMIZATION OF WATER read previous 
 .chk to get optimised geometry for freq
 ----------------------------------------------------------------------
 Structure from the checkpoint file:  "/rds/general/user/rk820/home/run_g16/test009_16_readchk.chk"
 Charge =  0 Multiplicity = 1
 Redundant internal coordinates found in file.  (old form).
 O,0,-0.0443085339,0.,-0.0313308648
 H,0,0.0370618264,0.,0.9545829597
 H,0,0.9123433875,0.,-0.2832520949
 Recover connectivity data from disk.
 ITRead=  0  0  0
 MicOpt= -1 -1 -1
 NAtoms=      3 NQM=        3 NQMF=       0 NMMI=      0 NMMIF=      0
                NMic=       0 NMicF=      0.
                    Isotopes and Nuclear Properties:
 (Nuclear quadrupole moments (NQMom) in fm**2, nuclear magnetic moments (NMagM)
  in nuclear magnetons)

  Atom         1           2           3
 IAtWgt=          16           1           1
 AtmWgt=  15.9949146   1.0078250   1.0078250
 NucSpn=           0           1           1
 AtZEff=   5.6000000   1.0000000   1.0000000
 NQMom=    0.0000000   0.0000000   0.0000000
 NMagM=    0.0000000   2.7928460   2.7928460
 AtZNuc=   8.0000000   1.0000000   1.0000000
 Leave Link  101 at Sun Jan 28 02:35:30 2024, MaxMem=   104857600 cpu:               0.1 elap:               0.1
 (Enter /apps/gaussian/g16-c01-avx2/g16/l103.exe)

 GradGradGradGradGradGradGradGradGradGradGradGradGradGradGradGradGradGrad
 Berny optimization.
 Initialization pass.
                           ----------------------------
                           !    Initial Parameters    !
                           ! (Angstroms and Degrees)  !
 --------------------------                            --------------------------
 ! Name  Definition              Value          Derivative Info.                !
 --------------------------------------------------------------------------------
 ! R1    R(1,2)                  0.9893         calculate D2E/DX2 analytically  !
 ! R2    R(1,3)                  0.9893         calculate D2E/DX2 analytically  !
 ! A1    A(2,1,3)              100.035          calculate D2E/DX2 analytically  !
 --------------------------------------------------------------------------------
 Trust Radius=3.00D-01 FncErr=1.00D-07 GrdErr=1.00D-07 EigMax=2.50D+02 EigMin=1.00D-04
 Number of steps in this run=      2 maximum allowed number of steps=      2.
 GradGradGradGradGradGradGradGradGradGradGradGradGradGradGradGradGradGrad

 Leave Link  103 at Sun Jan 28 02:35:30 2024, MaxMem=   104857600 cpu:               0.0 elap:               0.0
 (Enter /apps/gaussian/g16-c01-avx2/g16/l202.exe)
                          Input orientation:                          
 ---------------------------------------------------------------------
 Center     Atomic      Atomic             Coordinates (Angstroms)
 Number     Number       Type             X           Y           Z
 ---------------------------------------------------------------------
      1          8           0       -0.044309   -0.000000   -0.031331
      2          1           0        0.037062   -0.000000    0.954583
      3          1           0        0.912343    0.000000   -0.283252
 ---------------------------------------------------------------------
                    Distance matrix (angstroms):
                    1          2          3
     1  O    0.000000
     2  H    0.989266   0.000000
     3  H    0.989266   1.516032   0.000000
 Stoichiometry    H2O
 Framework group  C2V[C2(O),SGV(H2)]
 Deg. of freedom     2
 Full point group                 C2V     NOp   4
 RotChk:  IX=0 Diff= 1.80D-15
 Largest Abelian subgroup         C2V     NOp   4
 Largest concise Abelian subgroup C2      NOp   2
                         Standard orientation:                         
 ---------------------------------------------------------------------
 Center     Atomic      Atomic             Coordinates (Angstroms)
 Number     Number       Type             X           Y           Z
 ---------------------------------------------------------------------
      1          8           0        0.000000    0.000000    0.127131
      2          1           0       -0.000000    0.758016   -0.508525
      3          1           0       -0.000000   -0.758016   -0.508525
 ---------------------------------------------------------------------
 Rotational constants (GHZ):         698.7194691         436.3603066         268.6097033
 Leave Link  202 at Sun Jan 28 02:35:30 2024, MaxMem=   104857600 cpu:               0.0 elap:               0.0
 (Enter /apps/gaussian/g16-c01-avx2/g16/l301.exe)
 Standard basis: STO-3G (5D, 7F)
 Ernie: Thresh=  0.10000D-02 Tol=  0.10000D-05 Strict=F.
 There are     4 symmetry adapted cartesian basis functions of A1  symmetry.
 There are     0 symmetry adapted cartesian basis functions of A2  symmetry.
 There are     1 symmetry adapted cartesian basis functions of B1  symmetry.
 There are     2 symmetry adapted cartesian basis functions of B2  symmetry.
 There are     4 symmetry adapted basis functions of A1  symmetry.
 There are     0 symmetry adapted basis functions of A2  symmetry.
 There are     1 symmetry adapted basis functions of B1  symmetry.
 There are     2 symmetry adapted basis functions of B2  symmetry.
     7 basis functions,    21 primitive gaussians,     7 cartesian basis functions
     5 alpha electrons        5 beta electrons
       nuclear repulsion energy         8.9077586556 Hartrees.
 IExCor=    0 DFT=F Ex=HF Corr=None ExCW=0 ScaHFX=  1.000000
 ScaDFX=  1.000000  1.000000  1.000000  1.000000 ScalE2=  1.000000  1.000000
 IRadAn=      5 IRanWt=     -1 IRanGd=            0 ICorTp=0 IEmpDi=  4
 NAtoms=    3 NActive=    3 NUniq=    2 SFac= 2.25D+00 NAtFMM=   60 NAOKFM=F Big=F
 Integral buffers will be    131072 words long.
 Raffenetti 1 integral format.
 Two-electron integral symmetry is turned on.
 Leave Link  301 at Sun Jan 28 02:35:30 2024, MaxMem=   104857600 cpu:               0.0 elap:               0.0
 (Enter /apps/gaussian/g16-c01-avx2/g16/l302.exe)
 NPDir=0 NMtPBC=     1 NCelOv=     1 NCel=       1 NClECP=     1 NCelD=      1
         NCelK=      1 NCelE2=     1 NClLst=     1 CellRange=     0.0.
 One-electron integrals computed using PRISM.
 One-electron integral symmetry used in STVInt
 NBasis=     7 RedAO= T EigKep=  3.63D-01  NBF=     4     0     1     2
 NBsUse=     7 1.00D-06 EigRej= -1.00D+00 NBFU=     4     0     1     2
 Leave Link  302 at Sun Jan 28 02:35:30 2024, MaxMem=   104857600 cpu:               0.0 elap:               0.1
 (Enter /apps/gaussian/g16-c01-avx2/g16/l303.exe)
 DipDrv:  MaxL=1.
 Leave Link  303 at Sun Jan 28 02:35:30 2024, MaxMem=   104857600 cpu:               0.0 elap:               0.0
 (Enter /apps/gaussian/g16-c01-avx2/g16/l401.exe)
 ExpMin= 1.69D-01 ExpMax= 1.31D+02 ExpMxC= 1.31D+02 IAcc=3 IRadAn=         5 AccDes= 0.00D+00
 Harris functional with IExCor=  205 and IRadAn=       5 diagonalized for initial guess.
 HarFok:  IExCor=  205 AccDes= 0.00D+00 IRadAn=         5 IDoV= 1 UseB2=F ITyADJ=14
 ICtDFT=  3500011 ScaDFX=  1.000000  1.000000  1.000000  1.000000
 FoFCou: FMM=F IPFlag=           0 FMFlag=      100000 FMFlg1=           0
         NFxFlg=           0 DoJE=T BraDBF=F KetDBF=T FulRan=T
         wScrn=  0.000000 ICntrl=       500 IOpCl=  0 I1Cent=   200000004 NGrid=           0
         NMat0=    1 NMatS0=      1 NMatT0=    0 NMatD0=    1 NMtDS0=    0 NMtDT0=    0
 Petite list used in FoFCou.
 Harris En= -75.0374888539760    
 JPrj=0 DoOrth=F DoCkMO=F.
 Initial guess orbital symmetries:
       Occupied  (A1) (A1) (B2) (A1) (B1)
       Virtual   (A1) (B2)
 The electronic state of the initial guess is 1-A1.
 Leave Link  401 at Sun Jan 28 02:35:30 2024, MaxMem=   104857600 cpu:               0.1 elap:               0.1
 (Enter /apps/gaussian/g16-c01-avx2/g16/l502.exe)
 Keep R1 ints in memory in symmetry-blocked form, NReq=803179.
 FoFCou: FMM=F IPFlag=           0 FMFlag=           0 FMFlg1=           0
         NFxFlg=           0 DoJE=F BraDBF=F KetDBF=F FulRan=T
         wScrn=  0.000000 ICntrl=       600 IOpCl=  0 I1Cent=           0 NGrid=           0
         NMat0=    1 NMatS0=     28 NMatT0=    0 NMatD0=    1 NMtDS0=    0 NMtDT0=    0
 Petite list used in FoFCou.
 Closed shell SCF:
 Using DIIS extrapolation, IDIIS=  1040.
 NGot=   104857600 LenX=   104855678 LenY=   104854796
 Requested convergence on RMS density matrix=1.00D-08 within 128 cycles.
 Requested convergence on MAX density matrix=1.00D-06.
 Requested convergence on             energy=1.00D-06.
 No special actions if energy rises.

 Cycle   1  Pass 1  IDiag  1:
 E= -74.9111358516480    
 DIIS: error= 7.57D-02 at cycle   1 NSaved=   1.
 NSaved= 1 IEnMin= 1 EnMin= -74.9111358516480     IErMin= 1 ErrMin= 7.57D-02
 ErrMax= 7.57D-02  0.00D+00 EMaxC= 1.00D-01 BMatC= 3.94D-02 BMatP= 3.94D-02
 IDIUse=3 WtCom= 2.43D-01 WtEn= 7.57D-01
 Coeff-Com:  0.100D+01
 Coeff-En:   0.100D+01
 Coeff:      0.100D+01
 Gap=     0.868 Goal=   None    Shift=    0.000
 GapD=    0.868 DampG=2.000 DampE=0.500 DampFc=1.0000 IDamp=-1.
 RMSDP=4.21D-02 MaxDP=1.47D-01              OVMax= 0.00D+00

 Cycle   2  Pass 1  IDiag  1:
 E= -74.9652999059996     Delta-E=       -0.054164054352 Rises=F Damp=F
 DIIS: error= 7.40D-03 at cycle   2 NSaved=   2.
 NSaved= 2 IEnMin= 2 EnMin= -74.9652999059996     IErMin= 2 ErrMin= 7.40D-03
 ErrMax= 7.40D-03  0.00D+00 EMaxC= 1.00D-01 BMatC= 5.43D-04 BMatP= 3.94D-02
 IDIUse=3 WtCom= 9.26D-01 WtEn= 7.40D-02
 Coeff-Com:  0.819D-01 0.918D+00
 Coeff-En:   0.000D+00 0.100D+01
 Coeff:      0.759D-01 0.924D+00
 Gap=     0.975 Goal=   None    Shift=    0.000
 RMSDP=3.52D-03 MaxDP=1.08D-02 DE=-5.42D-02 OVMax= 0.00D+00

 Cycle   3  Pass 1  IDiag  1:
 E= -74.9658912161140     Delta-E=       -0.000591310114 Rises=F Damp=F
 DIIS: error= 9.37D-04 at cycle   3 NSaved=   3.
 NSaved= 3 IEnMin= 3 EnMin= -74.9658912161140     IErMin= 3 ErrMin= 9.37D-04
 ErrMax= 9.37D-04  0.00D+00 EMaxC= 1.00D-01 BMatC= 6.05D-06 BMatP= 5.43D-04
 IDIUse=3 WtCom= 9.91D-01 WtEn= 9.37D-03
 Coeff-Com: -0.127D-01-0.122D+00 0.114D+01
 Coeff-En:   0.000D+00 0.000D+00 0.100D+01
 Coeff:     -0.126D-01-0.121D+00 0.113D+01
 Gap=     0.974 Goal=   None    Shift=    0.000
 RMSDP=6.49D-04 MaxDP=2.70D-03 DE=-5.91D-04 OVMax= 0.00D+00

 Cycle   4  Pass 1  IDiag  1:
 E= -74.9659008463941     Delta-E=       -0.000009630280 Rises=F Damp=F
 DIIS: error= 1.43D-04 at cycle   4 NSaved=   4.
 NSaved= 4 IEnMin= 4 EnMin= -74.9659008463941     IErMin= 4 ErrMin= 1.43D-04
 ErrMax= 1.43D-04  0.00D+00 EMaxC= 1.00D-01 BMatC= 1.60D-07 BMatP= 6.05D-06
 IDIUse=3 WtCom= 9.99D-01 WtEn= 1.43D-03
 Coeff-Com:  0.147D-02 0.712D-02-0.220D+00 0.121D+01
 Coeff-En:   0.000D+00 0.000D+00 0.000D+00 0.100D+01
 Coeff:      0.146D-02 0.711D-02-0.220D+00 0.121D+01
 Gap=     0.974 Goal=   None    Shift=    0.000
 RMSDP=1.36D-04 MaxDP=5.71D-04 DE=-9.63D-06 OVMax= 0.00D+00

 Cycle   5  Pass 1  IDiag  1:
 E= -74.9659011563921     Delta-E=       -0.000000309998 Rises=F Damp=F
 DIIS: error= 2.03D-05 at cycle   5 NSaved=   5.
 NSaved= 5 IEnMin= 5 EnMin= -74.9659011563921     IErMin= 5 ErrMin= 2.03D-05
 ErrMax= 2.03D-05  0.00D+00 EMaxC= 1.00D-01 BMatC= 4.62D-09 BMatP= 1.60D-07
 IDIUse=1 WtCom= 1.00D+00 WtEn= 0.00D+00
 Coeff-Com: -0.955D-03-0.442D-02 0.158D+00-0.927D+00 0.177D+01
 Coeff:     -0.955D-03-0.442D-02 0.158D+00-0.927D+00 0.177D+01
 Gap=     0.975 Goal=   None    Shift=    0.000
 RMSDP=3.51D-05 MaxDP=1.10D-04 DE=-3.10D-07 OVMax= 0.00D+00

 Cycle   6  Pass 1  IDiag  1:
 E= -74.9659011712234     Delta-E=       -0.000000014831 Rises=F Damp=F
 DIIS: error= 2.42D-07 at cycle   6 NSaved=   6.
 NSaved= 6 IEnMin= 6 EnMin= -74.9659011712234     IErMin= 6 ErrMin= 2.42D-07
 ErrMax= 2.42D-07  0.00D+00 EMaxC= 1.00D-01 BMatC= 6.35D-13 BMatP= 4.62D-09
 IDIUse=1 WtCom= 1.00D+00 WtEn= 0.00D+00
 Coeff-Com: -0.402D-07-0.126D-04 0.522D-03-0.334D-02 0.149D-01 0.988D+00
 Coeff:     -0.402D-07-0.126D-04 0.522D-03-0.334D-02 0.149D-01 0.988D+00
 Gap=     0.975 Goal=   None    Shift=    0.000
 RMSDP=3.24D-07 MaxDP=1.19D-06 DE=-1.48D-08 OVMax= 0.00D+00

 Cycle   7  Pass 1  IDiag  1:
 E= -74.9659011712248     Delta-E=       -0.000000000001 Rises=F Damp=F
 DIIS: error= 1.98D-10 at cycle   7 NSaved=   7.
 NSaved= 7 IEnMin= 7 EnMin= -74.9659011712248     IErMin= 7 ErrMin= 1.98D-10
 ErrMax= 1.98D-10  0.00D+00 EMaxC= 1.00D-01 BMatC= 3.24D-19 BMatP= 6.35D-13
 IDIUse=1 WtCom= 1.00D+00 WtEn= 0.00D+00
 Coeff-Com:  0.548D-10 0.821D-08 0.590D-06-0.541D-05 0.191D-04 0.127D-02
 Coeff-Com:  0.999D+00
 Coeff:      0.548D-10 0.821D-08 0.590D-06-0.541D-05 0.191D-04 0.127D-02
 Coeff:      0.999D+00
 Gap=     0.975 Goal=   None    Shift=    0.000
 RMSDP=2.26D-10 MaxDP=7.40D-10 DE=-1.45D-12 OVMax= 0.00D+00

 SCF Done:  E(RHF) =  -74.9659011712     A.U. after    7 cycles
            NFock=  7  Conv=0.23D-09     -V/T= 2.0060
 KE= 7.451890678426D+01 PE=-1.963553364097D+02 EE= 3.796276979868D+01
 Leave Link  502 at Sun Jan 28 02:35:30 2024, MaxMem=   104857600 cpu:               0.1 elap:               0.1
 (Enter /apps/gaussian/g16-c01-avx2/g16/l801.exe)
 Range of M.O.s used for correlation:     1     7
 NBasis=     7 NAE=     5 NBE=     5 NFC=     0 NFV=     0
 NROrb=      7 NOA=     5 NOB=     5 NVA=     2 NVB=     2
 Leave Link  801 at Sun Jan 28 02:35:31 2024, MaxMem=   104857600 cpu:               0.0 elap:               0.1
 (Enter /apps/gaussian/g16-c01-avx2/g16/l1002.exe)
 Minotr:  Closed shell wavefunction.
          Direct CPHF calculation.
          Differentiating once with respect to electric field.
                with respect to dipole field.
          Electric field/nuclear overlap derivatives assumed to be zero.
          Using symmetry in CPHF.
          Requested convergence is 1.0D-08 RMS, and 1.0D-07 maximum.
          Secondary convergence is 1.0D-12 RMS, and 1.0D-12 maximum.
          NewPWx=F KeepS1=T KeepF1=T KeepIn=T MapXYZ=F SortEE=F KeepMc=T.
 Keep R1 ints in memory in symmetry-blocked form, NReq=803598.
 FoFCou: FMM=F IPFlag=           0 FMFlag=           0 FMFlg1=           0
         NFxFlg=           0 DoJE=F BraDBF=F KetDBF=F FulRan=T
         wScrn=  0.000000 ICntrl=       600 IOpCl=  0 I1Cent=           0 NGrid=           0
         NMat0=    1 NMatS0=     28 NMatT0=    0 NMatD0=    1 NMtDS0=    0 NMtDT0=    0
 Petite list used in FoFCou.
          MDV=     104857600 using IRadAn=       1.
          Solving linear equations simultaneously, MaxMat=       0.
          There are     3 degrees of freedom in the 1st order CPHF.  IDoFFX=0 NUNeed=     3.
      3 vectors produced by pass  0 Test12= 3.33D-16 3.33D-08 XBig12= 8.41D-01 6.90D-01.
 AX will form     3 AO Fock derivatives at one time.
      2 vectors produced by pass  1 Test12= 3.33D-16 3.33D-08 XBig12= 8.35D-03 7.20D-02.
      2 vectors produced by pass  2 Test12= 3.33D-16 3.33D-08 XBig12= 1.07D-04 6.31D-03.
      2 vectors produced by pass  3 Test12= 3.33D-16 3.33D-08 XBig12= 6.37D-09 7.70D-05.
 InvSVY:  IOpt=1 It=  1 EMax= 6.59D-18
 Solved reduced A of dimension     9 with     3 vectors.
 End of Minotr F.D. properties file   721 does not exist.
 End of Minotr F.D. properties file   722 does not exist.
 End of Minotr F.D. properties file   788 does not exist.
 Leave Link 1002 at Sun Jan 28 02:35:31 2024, MaxMem=   104857600 cpu:               0.0 elap:               0.1
 (Enter /apps/gaussian/g16-c01-avx2/g16/l1101.exe)
 Using compressed storage, NAtomX=     3.
 Will process      4 centers per pass.
 Leave Link 1101 at Sun Jan 28 02:35:32 2024, MaxMem=   104857600 cpu:               0.0 elap:               0.1
 (Enter /apps/gaussian/g16-c01-avx2/g16/l1102.exe)
 Symmetrizing basis deriv contribution to polar:
 IMax=3 JMax=2 DiffMx= 0.00D+00
 Leave Link 1102 at Sun Jan 28 02:35:33 2024, MaxMem=   104857600 cpu:               0.0 elap:               0.1
 (Enter /apps/gaussian/g16-c01-avx2/g16/l1110.exe)
 Forming Gx(P) for the SCF density, NAtomX=     3.
 Integral derivatives from FoFJK, PRISM(SPDF).
 Do as many integral derivatives as possible in FoFJK.
 G2DrvN: MDV=     104857167.
 G2DrvN: will do     4 centers at a time, making    1 passes.
 PxScal for G2LodP:  IOpCl= 0 ISclPx=1 IMOff=     1 NMtTot=     4 NTT=      28 ScalPx= 1.10D+00
 Calling FoFCou, ICntrl=  3107 FMM=F I1Cent=   0 AccDes= 0.00D+00.
 FoFJK:  IHMeth= 1 ICntrl=    3107 DoSepK=F KAlg= 0 I1Cent=           0 FoldK=F
 IRaf=         0 NMat=       1 IRICut=       1 DoRegI=T DoRafI=F ISym2E= 1 IDoP0=0 IntGTp=1.
 FoFCou: FMM=F IPFlag=           0 FMFlag=      100000 FMFlg1=           0
         NFxFlg=           0 DoJE=F BraDBF=F KetDBF=F FulRan=T
         wScrn=  0.000000 ICntrl=      3107 IOpCl=  0 I1Cent=           0 NGrid=           0
         NMat0=    1 NMatS0=      1 NMatT0=    0 NMatD0=    4 NMtDS0=    3 NMtDT0=    0
 Petite list used in FoFCou.
 End of G2Drv F.D. properties file   721 does not exist.
 End of G2Drv F.D. properties file   722 does not exist.
 End of G2Drv F.D. properties file   788 does not exist.
 Leave Link 1110 at Sun Jan 28 02:35:33 2024, MaxMem=   104857600 cpu:               0.1 elap:               0.1
 (Enter /apps/gaussian/g16-c01-avx2/g16/l1002.exe)
 Minotr:  Closed shell wavefunction.
          IDoAtm=111
          Direct CPHF calculation.
          Differentiating once with respect to electric field.
                with respect to dipole field.
          Differentiating once with respect to nuclear coordinates.
          Using symmetry in CPHF.
          Requested convergence is 1.0D-08 RMS, and 1.0D-07 maximum.
          Secondary convergence is 1.0D-12 RMS, and 1.0D-12 maximum.
          NewPWx=T KeepS1=F KeepF1=F KeepIn=T MapXYZ=F SortEE=F KeepMc=T.
 Keep R1 ints in memory in symmetry-blocked form, NReq=803670.
 FoFCou: FMM=F IPFlag=           0 FMFlag=           0 FMFlg1=           0
         NFxFlg=           0 DoJE=F BraDBF=F KetDBF=F FulRan=T
         wScrn=  0.000000 ICntrl=       600 IOpCl=  0 I1Cent=           0 NGrid=           0
         NMat0=    1 NMatS0=     28 NMatT0=    0 NMatD0=    1 NMtDS0=    0 NMtDT0=    0
 Petite list used in FoFCou.
          MDV=     104857600 using IRadAn=       1.
          Solving linear equations simultaneously, MaxMat=       0.
          There are     9 degrees of freedom in the 1st order CPHF.  IDoFFX=4 NUNeed=     9.
 Will reuse    3 saved solutions.
      6 vectors produced by pass  0 Test12= 1.11D-16 1.11D-08 XBig12= 2.68D-02 1.64D-01.
 AX will form     6 AO Fock derivatives at one time.
      4 vectors produced by pass  1 Test12= 1.11D-16 1.11D-08 XBig12= 1.34D-04 8.52D-03.
 InvSVY:  IOpt=1 It=  1 EMax= 2.22D-16
 Solved reduced A of dimension    10 with     6 vectors.
 FullF1:  Do perturbations      1 to       9.
 Isotropic polarizability for W=    0.000000        2.70 Bohr**3.
 FullF1:  Do perturbations      1 to       6.
 End of Minotr F.D. properties file   721 does not exist.
 End of Minotr F.D. properties file   722 does not exist.
 End of Minotr F.D. properties file   788 does not exist.
 Leave Link 1002 at Sun Jan 28 02:35:33 2024, MaxMem=   104857600 cpu:               0.1 elap:               0.1
 (Enter /apps/gaussian/g16-c01-avx2/g16/l601.exe)
 Copying SCF densities to generalized density rwf, IOpCl= 0 IROHF=0.

 **********************************************************************

            Population analysis using the SCF Density.

 **********************************************************************

 Orbital symmetries:
       Occupied  (A1) (A1) (B2) (A1) (B1)
       Virtual   (A1) (B2)
 The electronic state is 1-A1.
 Alpha  occ. eigenvalues --  -20.25155  -1.25761  -0.59394  -0.45973  -0.39262
 Alpha virt. eigenvalues --    0.58192   0.69286
          Condensed to atoms (all electrons):
               1          2          3
     1  O    7.822830   0.253918   0.253918
     2  H    0.253918   0.626169  -0.045420
     3  H    0.253918  -0.045420   0.626169
 Mulliken charges:
               1
     1  O   -0.330665
     2  H    0.165333
     3  H    0.165333
 Sum of Mulliken charges =   0.00000
 Mulliken charges with hydrogens summed into heavy atoms:
               1
     1  O    0.000000
 APT charges:
               1
     1  O   -0.169233
     2  H    0.084617
     3  H    0.084617
 Sum of APT charges =   0.00000
 APT charges with hydrogens summed into heavy atoms:
               1
     1  O    0.000000
 Electronic spatial extent (au):  <R**2>=             18.2666
 Charge=              0.0000 electrons
 Dipole moment (field-independent basis, Debye):
    X=             -0.0000    Y=             -0.0000    Z=             -1.7094  Tot=              1.7094
 Quadrupole moment (field-independent basis, Debye-Ang):
   XX=             -6.1255   YY=             -4.4854   ZZ=             -5.3333
   XY=              0.0000   XZ=              0.0000   YZ=              0.0000
 Traceless Quadrupole moment (field-independent basis, Debye-Ang):
   XX=             -0.8108   YY=              0.8294   ZZ=             -0.0186
   XY=              0.0000   XZ=              0.0000   YZ=              0.0000
 Octapole moment (field-independent basis, Debye-Ang**2):
  XXX=              0.0000  YYY=             -0.0000  ZZZ=             -0.1746  XYY=             -0.0000
  XXY=              0.0000  XXZ=              0.0191  XZZ=              0.0000  YZZ=             -0.0000
  YYZ=             -0.5314  XYZ=             -0.0000
 Hexadecapole moment (field-independent basis, Debye-Ang**3):
 XXXX=             -3.2652 YYYY=             -6.7323 ZZZZ=             -5.2185 XXXY=             -0.0000
 XXXZ=             -0.0000 YYYX=             -0.0000 YYYZ=              0.0000 ZZZX=             -0.0000
 ZZZY=             -0.0000 XXYY=             -1.8082 XXZZ=             -1.4595 YYZZ=             -1.7388
 XXYZ=             -0.0000 YYXZ=              0.0000 ZZXY=             -0.0000
 N-N= 8.907758655551D+00 E-N=-1.963553364067D+02  KE= 7.451890678426D+01
 Symmetry A1   KE= 6.651724881720D+01
 Symmetry A2   KE= 0.000000000000D+00
 Symmetry B1   KE= 5.057462452019D+00
 Symmetry B2   KE= 2.944195515044D+00
  Exact polarizability:       0.040       0.000       5.506       0.000       0.000       2.565
 Approx polarizability:       0.020       0.000       3.937       0.000       0.000       2.605
 No NMR shielding tensors so no spin-rotation constants.
 Leave Link  601 at Sun Jan 28 02:35:33 2024, MaxMem=   104857600 cpu:               0.0 elap:               0.1
 (Enter /apps/gaussian/g16-c01-avx2/g16/l701.exe)
 ... and contract with generalized density number  0.
 Compute integral second derivatives.
 Leave Link  701 at Sun Jan 28 02:35:33 2024, MaxMem=   104857600 cpu:               0.1 elap:               0.1
 (Enter /apps/gaussian/g16-c01-avx2/g16/l702.exe)
 L702 exits ... SP integral derivatives will be done elsewhere.
 Leave Link  702 at Sun Jan 28 02:35:33 2024, MaxMem=   104857600 cpu:               0.0 elap:               0.0
 (Enter /apps/gaussian/g16-c01-avx2/g16/l703.exe)
 Integral derivatives from FoFJK, PRISM(SPDF).
 Compute integral second derivatives, UseDBF=F ICtDFT=           0.
 Calling FoFJK, ICntrl=    100127 FMM=F ISym2X=1 I1Cent= 0 IOpClX= 0 NMat=1 NMatS=1 NMatT=0.
 FoFJK:  IHMeth= 1 ICntrl=  100127 DoSepK=F KAlg= 0 I1Cent=           0 FoldK=F
 IRaf=         0 NMat=       1 IRICut=       1 DoRegI=T DoRafI=F ISym2E= 1 IDoP0=0 IntGTp=1.
 FoFCou: FMM=F IPFlag=           0 FMFlag=      100000 FMFlg1=         800
         NFxFlg=           0 DoJE=F BraDBF=F KetDBF=F FulRan=T
         wScrn=  0.000000 ICntrl=    100127 IOpCl=  0 I1Cent=           0 NGrid=           0
         NMat0=    1 NMatS0=      1 NMatT0=    0 NMatD0=    1 NMtDS0=    0 NMtDT0=    0
 Petite list used in FoFCou.
 Leave Link  703 at Sun Jan 28 02:35:33 2024, MaxMem=   104857600 cpu:               0.1 elap:               0.1
 (Enter /apps/gaussian/g16-c01-avx2/g16/l716.exe)
 Dipole        =-3.44564831D-17-3.31389729D-16-6.72515458D-01
 Polarizability= 4.00581459D-02 3.22178557D-16 5.50610359D+00
                 1.61950927D-16 1.70022200D-15 2.56451975D+00
 HyperPolar    =-3.74026485D-17-1.15237747D-16-3.17866864D-16
                -2.88760178D-14 7.61718046D-02-3.02656490D-16
                -7.00963830D+00-1.57122195D-16-1.04099769D-14
                -4.11190900D+00
 Full mass-weighted force constant matrix:
 Low frequencies ---  -52.9411  -49.0423  -46.4417   -0.0021   -0.0005   -0.0004
 Low frequencies --- 2169.7566 4141.6011 4392.7809
 Diagonal vibrational polarizability:
        0.0000000       0.0417587       0.1108980
 Diagonal vibrational hyperpolarizability:
        0.0000000      -0.0000000      -0.4937216
 Harmonic frequencies (cm**-1), IR intensities (KM/Mole), Raman scattering
 activities (A**4/AMU), depolarization ratios for plane and unpolarized
 incident light, reduced masses (AMU), force constants (mDyne/A),
 and normal coordinates:
                      1                      2                      3
                     A1                     A1                     B2
 Frequencies --   2169.7566              4141.6011              4392.7809
 Red. masses --      1.0785                 1.0491                 1.0774
 Frc consts  --      2.9915                10.6023                12.2488
 IR Inten    --      7.2489                44.2739                29.9428
 Raman Activ --      9.2628                47.7939                21.5399
 Depolar (P) --      0.7246                 0.1791                 0.7500
 Depolar (U) --      0.8403                 0.3038                 0.8571
  Atom  AN      X      Y      Z        X      Y      Z        X      Y      Z
     1   8    -0.00  -0.00  -0.07     0.00  -0.00   0.05    -0.00  -0.07  -0.00
     2   1     0.00   0.45   0.54     0.00   0.57  -0.42    -0.00   0.54  -0.45
     3   1     0.00  -0.45   0.54    -0.00  -0.57  -0.42     0.00   0.54   0.45

 -------------------
 - Thermochemistry -
 -------------------
 Temperature   298.150 Kelvin.  Pressure   1.00000 Atm.
 Atom     1 has atomic number  8 and mass  15.99491
 Atom     2 has atomic number  1 and mass   1.00783
 Atom     3 has atomic number  1 and mass   1.00783
 Molecular mass:    18.01056 amu.
 Principal axes and moments of inertia in atomic units:
                           1         2         3
     Eigenvalues --     2.58293   4.13590   6.71882
           X            0.00000   0.00000   1.00000
           Y            1.00000  -0.00000   0.00000
           Z            0.00000   1.00000  -0.00000
 This molecule is an asymmetric top.
 Rotational symmetry number  2.
 Rotational temperatures (Kelvin)     33.53325    20.94199    12.89123
 Rotational constants (GHZ):         698.71947   436.36031   268.60970
 Zero-point vibrational energy      64025.0 (Joules/Mol)
                                   15.30233 (Kcal/Mol)
 Vibrational temperatures:   3121.80  5958.84  6320.23
          (Kelvin)
 
 Zero-point correction=                           0.024386 (Hartree/Particle)
 Thermal correction to Energy=                    0.027219
 Thermal correction to Enthalpy=                  0.028163
 Thermal correction to Gibbs Free Energy=         0.006649
 Sum of electronic and zero-point Energies=            -74.941515
 Sum of electronic and thermal Energies=               -74.938683
 Sum of electronic and thermal Enthalpies=             -74.937738
 Sum of electronic and thermal Free Energies=          -74.959253
 
                     E (Thermal)             CV                S
                      KCal/Mol        Cal/Mol-Kelvin    Cal/Mol-Kelvin
 Total                   17.080              5.968             45.281
 Electronic               0.000              0.000              0.000
 Translational            0.889              2.981             34.608
 Rotational               0.889              2.981             10.672
 Vibrational             15.303              0.006              0.001
                       Q            Log10(Q)             Ln(Q)
 Total Bot       0.874723D-03         -3.058129         -7.041603
 Total V=0       0.144066D+09          8.158560         18.785779
 Vib (Bot)       0.607187D-11        -11.216677        -25.827354
 Vib (V=0)       0.100003D+01          0.000012          0.000028
 Electronic      0.100000D+01          0.000000          0.000000
 Translational   0.300431D+07          6.477745         14.915559
 Rotational      0.479516D+02          1.680803          3.870192
 
            Gaussian Test Job 16 STO-3G BERNY OPTIMIZATION OF WATER read previous
  .chk to get optimised geometry for freq
                                                             IR Spectrum
 
     4       4                                                        2                                                              
     3       1                                                        1                                                              
     9       4                                                        7                                                              
     3       2                                                        0                                                              
 
     X       X                                                        X                                                              
     X       X                                                        X                                                              
     X       X                                                        X                                                              
     X       X                                                                                                                       
     X       X                                                                                                                       
     X       X                                                                                                                       
     X       X                                                                                                                       
     X       X                                                                                                                       
     X       X                                                                                                                       
     X       X                                                                                                                       
     X       X                                                                                                                       
     X       X                                                                                                                       
     X       X                                                                                                                       
     X       X                                                                                                                       
             X                                                                                                                       
             X                                                                                                                       
             X                                                                                                                       
             X                                                                                                                       
             X                                                                                                                       
             X                                                                                                                       
 
 
            Gaussian Test Job 16 STO-3G BERNY OPTIMIZATION OF WATER read previous
  .chk to get optimised geometry for freq
                                                            Raman Spectrum
 
     4       4                                                        2                                                              
     3       1                                                        1                                                              
     9       4                                                        7                                                              
     3       2                                                        0                                                              
 
     X       X                                                        X                                                              
     X       X                                                        X                                                              
     X       X                                                        X                                                              
     X       X                                                        X                                                              
     X       X                                                                                                                       
     X       X                                                                                                                       
     X       X                                                                                                                       
     X       X                                                                                                                       
     X       X                                                                                                                       
             X                                                                                                                       
             X                                                                                                                       
             X                                                                                                                       
             X                                                                                                                       
             X                                                                                                                       
             X                                                                                                                       
             X                                                                                                                       
             X                                                                                                                       
             X                                                                                                                       
             X                                                                                                                       
             X                                                                                                                       
 
 ***** Axes restored to original set *****
 -------------------------------------------------------------------
 Center     Atomic                   Forces (Hartrees/Bohr)
 Number     Number              X              Y              Z
 -------------------------------------------------------------------
      1        8          -0.000186218    0.000000000   -0.000131676
      2        1           0.000025078   -0.000000000    0.000162049
      3        1           0.000161141   -0.000000000   -0.000030373
 -------------------------------------------------------------------
 Cartesian Forces:  Max     0.000186218 RMS     0.000108420
 Force constants in Cartesian coordinates: 
                1             2             3             4             5 
      1  0.691627D+00
      2  0.000000D+00 -0.189866D-03
      3 -0.798730D-01  0.000000D+00  0.748106D+00
      4 -0.846588D-01  0.000000D+00 -0.112833D+00  0.854069D-01
      5  0.000000D+00  0.949329D-04  0.000000D+00  0.000000D+00 -0.885968D-04
      6  0.804126D-02  0.000000D+00 -0.635208D+00  0.268068D-01  0.000000D+00
      7 -0.606968D+00  0.000000D+00  0.192706D+00 -0.748115D-03  0.000000D+00
      8  0.000000D+00  0.949329D-04  0.000000D+00  0.000000D+00 -0.633609D-05
      9  0.718317D-01  0.000000D+00 -0.112898D+00  0.860259D-01  0.000000D+00
                6             7             8             9 
      6  0.654050D+00
      7 -0.348480D-01  0.607717D+00
      8  0.000000D+00  0.000000D+00 -0.885968D-04
      9 -0.188422D-01 -0.157858D+00  0.000000D+00  0.131740D+00
 FormGI is forming the generalized inverse of G from B-inverse, IUseBI=4.
 Force constants in internal coordinates: 
                1             2             3 
      1  0.654598D+00
      2 -0.306644D-01  0.654598D+00
      3  0.377187D-01  0.377187D-01  0.296873D+00
 Leave Link  716 at Sun Jan 28 02:35:33 2024, MaxMem=   104857600 cpu:               0.0 elap:               0.0
 (Enter /apps/gaussian/g16-c01-avx2/g16/l103.exe)

 GradGradGradGradGradGradGradGradGradGradGradGradGradGradGradGradGradGrad
 Berny optimization.
 Red2BG is reusing G-inverse.
 Internal  Forces:  Max     0.000163563 RMS     0.000134140
 Search for a local minimum.
 Step number   1 out of a maximum of    2
 All quantities printed in internal units (Hartrees-Bohrs-Radians)
 Second derivative matrix not updated -- analytic derivatives used.
 The second derivative matrix:
                          R1        R2        A1
           R1           0.65460
           R2          -0.03066   0.65460
           A1           0.03772   0.03772   0.29687
 ITU=  0
     Eigenvalues ---    0.28839   0.63241   0.68526
 Angle between quadratic step and forces=  15.00 degrees.
 Linear search not attempted -- first point.
 Iteration  1 RMS(Cart)=  0.00016382 RMS(Int)=  0.00000001
 Iteration  2 RMS(Cart)=  0.00000001 RMS(Int)=  0.00000000
 ITry= 1 IFail=0 DXMaxC= 1.53D-04 DCOld= 1.00D+10 DXMaxT= 3.00D-01 DXLimC= 3.00D+00 Rises=F
 ClnCor:  largest displacement from symmetrization is 3.69D-15 for atom     3.
 Variable       Old X    -DE/DX   Delta X   Delta X   Delta X     New X
                                 (Linear)    (Quad)   (Total)
    R1        1.86944   0.00016   0.00000   0.00027   0.00027   1.86971
    R2        1.86944   0.00016   0.00000   0.00027   0.00027   1.86971
    A1        1.74594  -0.00002   0.00000  -0.00014  -0.00014   1.74580
         Item               Value     Threshold  Converged?
 Maximum Force            0.000164     0.000450     YES
 RMS     Force            0.000134     0.000300     YES
 Maximum Displacement     0.000153     0.001800     YES
 RMS     Displacement     0.000164     0.001200     YES
 Predicted change in Energy=-4.583487D-08
 Optimization completed.
    -- Stationary point found.
                           ----------------------------
                           !   Optimized Parameters   !
                           ! (Angstroms and Degrees)  !
 --------------------------                            --------------------------
 ! Name  Definition              Value          Derivative Info.                !
 --------------------------------------------------------------------------------
 ! R1    R(1,2)                  0.9893         -DE/DX =    0.0002              !
 ! R2    R(1,3)                  0.9893         -DE/DX =    0.0002              !
 ! A1    A(2,1,3)              100.035          -DE/DX =    0.0                 !
 --------------------------------------------------------------------------------
 GradGradGradGradGradGradGradGradGradGradGradGradGradGradGradGradGradGrad

 Leave Link  103 at Sun Jan 28 02:35:33 2024, MaxMem=   104857600 cpu:               0.0 elap:               0.0
 (Enter /apps/gaussian/g16-c01-avx2/g16/l9999.exe)

 ----------------------------------------------------------------------

 Electric dipole moment (input orientation):
 (Debye = 10**-18 statcoulomb cm , SI units = C m)
                  (au)            (Debye)         (10**-30 SI)
   Tot        0.672515D+00      0.170936D+01      0.570182D+01
   x          0.549107D+00      0.139569D+01      0.465552D+01
   y          0.000000D+00      0.000000D+00      0.000000D+00
   z          0.388277D+00      0.986902D+00      0.329195D+01

 Dipole polarizability, Alpha (input orientation).
 (esu units = cm**3 , SI units = C**2 m**2 J**-1)
 Alpha(0;0):
               (au)            (10**-24 esu)      (10**-40 SI)
   iso        0.270356D+01      0.400626D+00      0.445757D+00
   aniso      0.473833D+01      0.702148D+00      0.781244D+00
   xx         0.354505D+01      0.525322D+00      0.584499D+00
   yx         0.000000D+00      0.000000D+00      0.000000D+00
   yy         0.400581D-01      0.593600D-02      0.660470D-02
   zx        -0.138668D+01     -0.205484D+00     -0.228632D+00
   zy         0.000000D+00      0.000000D+00      0.000000D+00
   zz         0.452558D+01      0.670621D+00      0.746167D+00

 First dipole hyperpolarizability, Beta (input orientation).
 ||, _|_  parallel and perpendicular components, (z) with respect to z axis,
 vector components x,y,z.  Values do not include the 1/n! factor of 1/2.
 (esu units = statvolt**-1 cm**4 , SI units = C**3 m**3 J**-2)
 Beta(0;0,0):
               (au)            (10**-30 esu)      (10**-50 SI)
   || (z)     0.382623D+01      0.330556D-01      0.122683D-01
   _|_(z)     0.127541D+01      0.110185D-01      0.408943D-02
   x          0.270555D+02      0.233739D+00      0.867498D-01
   y          0.000000D+00      0.000000D+00      0.000000D+00
   z          0.191312D+02      0.165278D+00      0.613414D-01
   ||         0.662723D+01      0.572541D-01      0.212493D-01
   xxx        0.796159D+01      0.687819D-01      0.255277D-01
   xxy        0.000000D+00      0.000000D+00      0.000000D+00
   yxy       -0.621940D-01     -0.537308D-03     -0.199417D-03
   yyy        0.000000D+00      0.000000D+00      0.000000D+00
   xxz       -0.246434D+01     -0.212900D-01     -0.790157D-02
   yxz        0.000000D+00      0.000000D+00      0.000000D+00
   yyz       -0.439778D-01     -0.379934D-03     -0.141009D-03
   zxz        0.111912D+01      0.966832D-02      0.358830D-02
   zyz        0.000000D+00      0.000000D+00      0.000000D+00
   zzz        0.888537D+01      0.767627D-01      0.284897D-01

 ----------------------------------------------------------------------

 Dipole orientation:
     8         -0.00000000         -0.00000000         -0.10254911
     1         -1.43244277         -0.00000000          1.09866708
     1          1.43244277          0.00000000          1.09866708

 Electric dipole moment (dipole orientation):
 (Debye = 10**-18 statcoulomb cm , SI units = C m)
                  (au)            (Debye)         (10**-30 SI)
   Tot        0.672515D+00      0.170936D+01      0.570182D+01
   x          0.000000D+00      0.000000D+00      0.000000D+00
   y          0.000000D+00      0.000000D+00      0.000000D+00
   z          0.672515D+00      0.170936D+01      0.570182D+01

 Dipole polarizability, Alpha (dipole orientation).
 (esu units = cm**3 , SI units = C**2 m**2 J**-1)
 Alpha(0;0):
               (au)            (10**-24 esu)      (10**-40 SI)
   iso        0.270356D+01      0.400626D+00      0.445757D+00
   aniso      0.473833D+01      0.702148D+00      0.781244D+00
   xx         0.550610D+01      0.815920D+00      0.907834D+00
   yx         0.000000D+00      0.000000D+00      0.000000D+00
   yy         0.400581D-01      0.593600D-02      0.660470D-02
   zx         0.000000D+00      0.000000D+00      0.000000D+00
   zy         0.000000D+00      0.000000D+00      0.000000D+00
   zz         0.256452D+01      0.380023D+00      0.422832D+00

 First dipole hyperpolarizability, Beta (dipole orientation).
 ||, _|_  parallel and perpendicular components, (z) with respect to z axis,
 vector components x,y,z.  Values do not include the 1/n! factor of 1/2.
 (esu units = statvolt**-1 cm**4 , SI units = C**3 m**3 J**-2)
 Beta(0;0,0):
               (au)            (10**-30 esu)      (10**-50 SI)
   || (z)     0.662723D+01      0.572541D-01      0.212493D-01
   _|_(z)     0.220908D+01      0.190847D-01      0.708309D-02
   x          0.000000D+00      0.000000D+00      0.000000D+00
   y          0.000000D+00      0.000000D+00      0.000000D+00
   z          0.331361D+02      0.286270D+00      0.106246D+00
   ||         0.662723D+01      0.572541D-01      0.212493D-01
   xxx        0.000000D+00      0.000000D+00      0.000000D+00
   xxy        0.000000D+00      0.000000D+00      0.000000D+00
   yxy        0.000000D+00      0.000000D+00      0.000000D+00
   yyy        0.000000D+00      0.000000D+00      0.000000D+00
   xxz        0.700964D+01      0.605578D-01      0.224754D-01
   yxz        0.000000D+00      0.000000D+00      0.000000D+00
   yyz       -0.761718D-01     -0.658065D-03     -0.244234D-03
   zxz        0.000000D+00      0.000000D+00      0.000000D+00
   zyz        0.000000D+00      0.000000D+00      0.000000D+00
   zzz        0.411191D+01      0.355237D-01      0.131843D-01

 ----------------------------------------------------------------------

 Test job not archived.
 1\1\GINC-CX3-7-2\Freq\RHF\STO-3G\H2O1\RK820\28-Jan-2024\0\\#P TEST fre
 q STO-3G geom=check\\Gaussian Test Job 16 STO-3G BERNY OPTIMIZATION OF
  WATER read previous .chk to get optimised geometry for freq\\0,1\O,-0
 .0443085339,0.,-0.0313308648\H,0.0370618264,0.,0.9545829597\H,0.912343
 3875,0.,-0.2832520949\\Version=ES64L-G16RevC.01\State=1-A1\HF=-74.9659
 012\RMSD=2.265e-10\RMSF=1.084e-04\ZeroPoint=0.0243858\Thermal=0.027218
 7\ETot=-74.9386825\HTot=-74.9377383\GTot=-74.9592526\Dipole=0.5491066,
 0.,0.388277\DipoleDeriv=0.0451953,0.,0.054062,0.,-0.5598621,0.,0.05406
 2,0.,0.0069677,0.1559295,0.,-0.1224305,0.,0.2799311,0.,-0.0578692,0.,-
 0.1820111,-0.2011249,0.,0.0683686,0.,0.2799311,0.,0.0038073,0.,0.17504
 33\Polar=3.5450477,0.,0.0400581,-1.3866759,0.,4.5255756\PolarDeriv=-5.
 058644,0.,0.0148397,-0.1161212,0.,-1.4797801,0.,-1.7159395,0.,0.,-1.21
 33524,0.,-0.2802303,0.,0.0104932,-1.2476947,0.,-4.3431336,-0.1177139,0
 .,-0.0254775,1.8154825,0.,0.7020421,0.,-0.2435831,0.,0.,2.1645072,0.,0
 .2520087,0.,0.0202907,-0.5775649,0.,5.8566725,5.1763579,0.,0.0106378,-
 1.6993613,0.,0.777738,0.,1.9595226,0.,0.,-0.9511548,0.,0.0282216,0.,-0
 .030784,1.8252596,0.,-1.5135389\HyperPolar=7.9615855,0.,-0.062194,0.,-
 2.464342,0.,-0.0439778,1.1191199,0.,8.8853704\Quadrupole=0.1963247,-0.
 6027962,0.4064715,0.,-0.2971925,0.\PG=C02V [C2(O1),SGV(H2)]\NImag=0\\0
 .69162723,0.,-0.00018987,-0.07987295,0.,0.74810594,-0.08465882,0.,-0.1
 1283264,0.08540694,0.,0.00009493,0.,0.,-0.00008860,0.00804126,0.,-0.63
 520776,0.02680676,0.,0.65404998,-0.60696841,0.,0.19270559,-0.00074811,
 0.,-0.03484802,0.60771652,0.,0.00009493,0.,0.,-0.00000634,0.,0.,-0.000
 08860,0.07183169,0.,-0.11289818,0.08602588,0.,-0.01884222,-0.15785757,
 0.,0.13174040\\0.00018622,0.,0.00013168,-0.00002508,0.,-0.00016205,-0.
 00016114,0.,0.00003037\\\@


 Democracy is the recurrent suspicion that more than half of the people
 are right more than half of the time.
 -- E. B. White
 Job cpu time:       0 days  0 hours  0 minutes  1.1 seconds.
 Elapsed time:       0 days  0 hours  0 minutes  1.3 seconds.
 File lengths (MBytes):  RWF=      6 Int=      0 D2E=      0 Chk=     16 Scr=      1
 Normal termination of Gaussian 16 at Sun Jan 28 02:35:33 2024.
