 Entering Gaussian System, Link 0=g16
 Input=pc_project.gjf
 Output=pc_project.log
 Initial command:
 /apps/gaussian/g16-c01-avx2/g16/l1.exe "/var/tmp/pbs.9388683.pbs/Gau-1727391.inp" -scrdir="/var/tmp/pbs.9388683.pbs/"
 Entering Link 1 = /apps/gaussian/g16-c01-avx2/g16/l1.exe PID=   1727392.
  
 Copyright (c) 1988-2019, Gaussian, Inc.  All Rights Reserved.
  
 This is part of the Gaussian(R) 16 program.  It is based on
 the Gaussian(R) 09 system (copyright 2009, Gaussian, Inc.),
 the Gaussian(R) 03 system (copyright 2003, Gaussian, Inc.),
 the Gaussian(R) 98 system (copyright 1998, Gaussian, Inc.),
 the Gaussian(R) 94 system (copyright 1995, Gaussian, Inc.),
 the Gaussian 92(TM) system (copyright 1992, Gaussian, Inc.),
 the Gaussian 90(TM) system (copyright 1990, Gaussian, Inc.),
 the Gaussian 88(TM) system (copyright 1988, Gaussian, Inc.),
 the Gaussian 86(TM) system (copyright 1986, Carnegie Mellon
 University), and the Gaussian 82(TM) system (copyright 1983,
 Carnegie Mellon University). Gaussian is a federally registered
 trademark of Gaussian, Inc.
  
 This software contains proprietary and confidential information,
 including trade secrets, belonging to Gaussian, Inc.
  
 This software is provided under written license and may be
 used, copied, transmitted, or stored only in accord with that
 written license.
  
 The following legend is applicable only to US Government
 contracts under FAR:
  
                    RESTRICTED RIGHTS LEGEND
  
 Use, reproduction and disclosure by the US Government is
 subject to restrictions as set forth in subparagraphs (a)
 and (c) of the Commercial Computer Software - Restricted
 Rights clause in FAR 52.227-19.
  
 Gaussian, Inc.
 340 Quinnipiac St., Bldg. 40, Wallingford CT 06492
  
  
 ---------------------------------------------------------------
 Warning -- This program may not be used in any manner that
 competes with the business of Gaussian, Inc. or will provide
 assistance to any competitor of Gaussian, Inc.  The licensee
 of this program is prohibited from giving any competitor of
 Gaussian, Inc. access to this program.  By using this program,
 the user acknowledges that Gaussian, Inc. is engaged in the
 business of creating and licensing software in the field of
 computational chemistry and represents and warrants to the
 licensee that it is not a competitor of Gaussian, Inc. and that
 it will not use this program in any manner prohibited above.
 ---------------------------------------------------------------
  

 Cite this work as:
 Gaussian 16, Revision C.01,
 M. J. Frisch, G. W. Trucks, H. B. Schlegel, G. E. Scuseria, 
 M. A. Robb, J. R. Cheeseman, G. Scalmani, V. Barone, 
 G. A. Petersson, H. Nakatsuji, X. Li, M. Caricato, A. V. Marenich, 
 J. Bloino, B. G. Janesko, R. Gomperts, B. Mennucci, H. P. Hratchian, 
 J. V. Ortiz, A. F. Izmaylov, J. L. Sonnenberg, D. Williams-Young, 
 F. Ding, F. Lipparini, F. Egidi, J. Goings, B. Peng, A. Petrone, 
 T. Henderson, D. Ranasinghe, V. G. Zakrzewski, J. Gao, N. Rega, 
 G. Zheng, W. Liang, M. Hada, M. Ehara, K. Toyota, R. Fukuda, 
 J. Hasegawa, M. Ishida, T. Nakajima, Y. Honda, O. Kitao, H. Nakai, 
 T. Vreven, K. Throssell, J. A. Montgomery, Jr., J. E. Peralta, 
 F. Ogliaro, M. J. Bearpark, J. J. Heyd, E. N. Brothers, K. N. Kudin, 
 V. N. Staroverov, T. A. Keith, R. Kobayashi, J. Normand, 
 K. Raghavachari, A. P. Rendell, J. C. Burant, S. S. Iyengar, 
 J. Tomasi, M. Cossi, J. M. Millam, M. Klene, C. Adamo, R. Cammi, 
 J. W. Ochterski, R. L. Martin, K. Morokuma, O. Farkas, 
 J. B. Foresman, and D. J. Fox, Gaussian, Inc., Wallingford CT, 2019.
 
 ******************************************
 Gaussian 16:  ES64L-G16RevC.01  3-Jul-2019
                 7-May-2024 
 ******************************************
 %chk=pc0.chk
 %NProcShared=128
 Will use up to  128 processors via shared memory.
 %Mem=900GB
 --------------------------------------------
 #p B3LYP/Def2TZVP geom=connectivity opt freq
 --------------------------------------------
 1/18=20,19=15,26=3,38=1,57=2/1,3;
 2/9=110,12=2,17=6,18=5,40=1/2;
 3/5=44,7=101,11=2,25=1,30=1,71=1,74=-5/1,2,3;
 4//1;
 5/5=2,38=5/2;
 6/7=2,8=2,9=2,10=2,28=1/1;
 7//1,2,3,16;
 1/18=20,19=15,26=3/3(2);
 2/9=110/2;
 99//99;
 2/9=110/2;
 3/5=44,7=101,11=2,25=1,30=1,71=1,74=-5/1,2,3;
 4/5=5,16=3,69=1/1;
 5/5=2,38=5/2;
 7//1,2,3,16;
 1/18=20,19=15,26=3/3(-5);
 2/9=110/2;
 6/7=2,8=2,9=2,10=2,19=2,28=1/1;
 99/9=1/99;
 Leave Link    1 at Tue May  7 11:17:17 2024, MaxMem=120795955200 cpu:               2.7 elap:               0.0
 (Enter /apps/gaussian/g16-c01-avx2/g16/l101.exe)
 ----------------------------------------------------------------------
 Ground state geometry optimization and frequency calculation of peryle
 ne.
 ----------------------------------------------------------------------
 Symbolic Z-matrix:
 Charge =  1 Multiplicity = 2
 C                    -1.20569  -3.39753  -0.00015 
 C                     0.21957  -3.39753  -0.00015 
 C                     0.90215  -2.16528  -0.00015 
 C                     0.16572  -0.9405    0.00002 
 C                    -1.24272  -0.96551  -0.00009 
 C                    -1.9111   -2.22434  -0.00015 
 C                     2.33104  -2.13991  -0.0001 
 C                     0.8582    0.30964   0.00039 
 C                     2.2871    0.33502   0.00079 
 C                     3.02352  -0.88975   0.0005 
 C                     2.96965   1.56728   0.00153 
 C                     0.13231   1.51689   0.0006 
 C                    -1.29206   1.4663    0.00029 
 C                    -1.95537   0.26879  -0.00001 
 H                    -3.05565   0.23636  -0.00016 
 H                    -1.84819   2.41624   0.00036 
 H                    -1.72776  -4.36662  -0.00016 
 H                    -3.01184  -2.23099  -0.00015 
 C                     3.05692  -3.34715  -0.00053 
 C                     4.48129  -3.29656  -0.0005 
 C                     5.1446   -2.09905   0.00035 
 C                     4.43196  -0.86475   0.0009 
 H                     5.03742  -4.24649  -0.00099 
 H                     6.24488  -2.06662   0.0006 
 C                     4.39491   1.56729   0.00232 
 H                     4.91697   2.53639   0.00333 
 C                     5.10033   0.39409   0.00191 
 H                     6.20107   0.40077   0.00236 
 H                     0.86079  -4.29132  -0.00027 
 H                     2.50693  -4.29978  -0.00064 
 H                     0.68229   2.46952   0.00102 
 H                     2.38618   2.49978   0.00165 
 
 ITRead=  0  0  0  0  0  0  0  0  0  0  0  0  0  0  0  0  0  0  0  0
 ITRead=  0  0  0  0  0  0  0  0  0  0  0  0
 MicOpt= -1 -1 -1 -1 -1 -1 -1 -1 -1 -1 -1 -1 -1 -1 -1 -1 -1 -1 -1 -1
 MicOpt= -1 -1 -1 -1 -1 -1 -1 -1 -1 -1 -1 -1
 NAtoms=     32 NQM=       32 NQMF=       0 NMMI=      0 NMMIF=      0
                NMic=       0 NMicF=      0.
                    Isotopes and Nuclear Properties:
 (Nuclear quadrupole moments (NQMom) in fm**2, nuclear magnetic moments (NMagM)
  in nuclear magnetons)

  Atom         1           2           3           4           5           6           7           8           9          10
 IAtWgt=          12          12          12          12          12          12          12          12          12          12
 AtmWgt=  12.0000000  12.0000000  12.0000000  12.0000000  12.0000000  12.0000000  12.0000000  12.0000000  12.0000000  12.0000000
 NucSpn=           0           0           0           0           0           0           0           0           0           0
 AtZEff=  -0.0000000  -0.0000000  -0.0000000  -0.0000000  -0.0000000  -0.0000000  -0.0000000  -0.0000000  -0.0000000  -0.0000000
 NQMom=    0.0000000   0.0000000   0.0000000   0.0000000   0.0000000   0.0000000   0.0000000   0.0000000   0.0000000   0.0000000
 NMagM=    0.0000000   0.0000000   0.0000000   0.0000000   0.0000000   0.0000000   0.0000000   0.0000000   0.0000000   0.0000000
 AtZNuc=   6.0000000   6.0000000   6.0000000   6.0000000   6.0000000   6.0000000   6.0000000   6.0000000   6.0000000   6.0000000

  Atom        11          12          13          14          15          16          17          18          19          20
 IAtWgt=          12          12          12          12           1           1           1           1          12          12
 AtmWgt=  12.0000000  12.0000000  12.0000000  12.0000000   1.0078250   1.0078250   1.0078250   1.0078250  12.0000000  12.0000000
 NucSpn=           0           0           0           0           1           1           1           1           0           0
 AtZEff=  -0.0000000  -0.0000000  -0.0000000  -0.0000000  -0.0000000  -0.0000000  -0.0000000  -0.0000000  -0.0000000  -0.0000000
 NQMom=    0.0000000   0.0000000   0.0000000   0.0000000   0.0000000   0.0000000   0.0000000   0.0000000   0.0000000   0.0000000
 NMagM=    0.0000000   0.0000000   0.0000000   0.0000000   2.7928460   2.7928460   2.7928460   2.7928460   0.0000000   0.0000000
 AtZNuc=   6.0000000   6.0000000   6.0000000   6.0000000   1.0000000   1.0000000   1.0000000   1.0000000   6.0000000   6.0000000

  Atom        21          22          23          24          25          26          27          28          29          30
 IAtWgt=          12          12           1           1          12           1          12           1           1           1
 AtmWgt=  12.0000000  12.0000000   1.0078250   1.0078250  12.0000000   1.0078250  12.0000000   1.0078250   1.0078250   1.0078250
 NucSpn=           0           0           1           1           0           1           0           1           1           1
 AtZEff=  -0.0000000  -0.0000000  -0.0000000  -0.0000000  -0.0000000  -0.0000000  -0.0000000  -0.0000000  -0.0000000  -0.0000000
 NQMom=    0.0000000   0.0000000   0.0000000   0.0000000   0.0000000   0.0000000   0.0000000   0.0000000   0.0000000   0.0000000
 NMagM=    0.0000000   0.0000000   2.7928460   2.7928460   0.0000000   2.7928460   0.0000000   2.7928460   2.7928460   2.7928460
 AtZNuc=   6.0000000   6.0000000   1.0000000   1.0000000   6.0000000   1.0000000   6.0000000   1.0000000   1.0000000   1.0000000

  Atom        31          32
 IAtWgt=           1           1
 AtmWgt=   1.0078250   1.0078250
 NucSpn=           1           1
 AtZEff=  -0.0000000  -0.0000000
 NQMom=    0.0000000   0.0000000
 NMagM=    2.7928460   2.7928460
 AtZNuc=   1.0000000   1.0000000
 Leave Link  101 at Tue May  7 11:17:18 2024, MaxMem=120795955200 cpu:              23.8 elap:               0.2
 (Enter /apps/gaussian/g16-c01-avx2/g16/l103.exe)

 GradGradGradGradGradGradGradGradGradGradGradGradGradGradGradGradGradGrad
 Berny optimization.
 Initialization pass.
                           ----------------------------
                           !    Initial Parameters    !
                           ! (Angstroms and Degrees)  !
 --------------------------                            --------------------------
 ! Name  Definition              Value          Derivative Info.                !
 --------------------------------------------------------------------------------
 ! R1    R(1,2)                  1.4253         estimate D2E/DX2                !
 ! R2    R(1,6)                  1.3689         estimate D2E/DX2                !
 ! R3    R(1,17)                 1.1008         estimate D2E/DX2                !
 ! R4    R(2,3)                  1.4087         estimate D2E/DX2                !
 ! R5    R(2,29)                 1.1            estimate D2E/DX2                !
 ! R6    R(3,4)                  1.4291         estimate D2E/DX2                !
 ! R7    R(3,7)                  1.4291         estimate D2E/DX2                !
 ! R8    R(4,5)                  1.4087         estimate D2E/DX2                !
 ! R9    R(4,8)                  1.4291         estimate D2E/DX2                !
 ! R10   R(5,6)                  1.4253         estimate D2E/DX2                !
 ! R11   R(5,14)                 1.4253         estimate D2E/DX2                !
 ! R12   R(6,18)                 1.1008         estimate D2E/DX2                !
 ! R13   R(7,10)                 1.4291         estimate D2E/DX2                !
 ! R14   R(7,19)                 1.4087         estimate D2E/DX2                !
 ! R15   R(8,9)                  1.4291         estimate D2E/DX2                !
 ! R16   R(8,12)                 1.4087         estimate D2E/DX2                !
 ! R17   R(9,10)                 1.4291         estimate D2E/DX2                !
 ! R18   R(9,11)                 1.4087         estimate D2E/DX2                !
 ! R19   R(10,22)                1.4087         estimate D2E/DX2                !
 ! R20   R(11,25)                1.4253         estimate D2E/DX2                !
 ! R21   R(11,32)                1.1            estimate D2E/DX2                !
 ! R22   R(12,13)                1.4253         estimate D2E/DX2                !
 ! R23   R(12,31)                1.1            estimate D2E/DX2                !
 ! R24   R(13,14)                1.3689         estimate D2E/DX2                !
 ! R25   R(13,16)                1.1008         estimate D2E/DX2                !
 ! R26   R(14,15)                1.1008         estimate D2E/DX2                !
 ! R27   R(19,20)                1.4253         estimate D2E/DX2                !
 ! R28   R(19,30)                1.1            estimate D2E/DX2                !
 ! R29   R(20,21)                1.3689         estimate D2E/DX2                !
 ! R30   R(20,23)                1.1008         estimate D2E/DX2                !
 ! R31   R(21,22)                1.4253         estimate D2E/DX2                !
 ! R32   R(21,24)                1.1008         estimate D2E/DX2                !
 ! R33   R(22,27)                1.4253         estimate D2E/DX2                !
 ! R34   R(25,26)                1.1008         estimate D2E/DX2                !
 ! R35   R(25,27)                1.3689         estimate D2E/DX2                !
 ! R36   R(27,28)                1.1008         estimate D2E/DX2                !
 ! A1    A(2,1,6)              121.0175         estimate D2E/DX2                !
 ! A2    A(2,1,17)             118.3124         estimate D2E/DX2                !
 ! A3    A(6,1,17)             120.6701         estimate D2E/DX2                !
 ! A4    A(1,2,3)              118.9833         estimate D2E/DX2                !
 ! A5    A(1,2,29)             125.6563         estimate D2E/DX2                !
 ! A6    A(3,2,29)             115.3604         estimate D2E/DX2                !
 ! A7    A(2,3,4)              119.9994         estimate D2E/DX2                !
 ! A8    A(2,3,7)              120.0006         estimate D2E/DX2                !
 ! A9    A(4,3,7)              120.0            estimate D2E/DX2                !
 ! A10   A(3,4,5)              119.9999         estimate D2E/DX2                !
 ! A11   A(3,4,8)              119.9998         estimate D2E/DX2                !
 ! A12   A(5,4,8)              120.0003         estimate D2E/DX2                !
 ! A13   A(4,5,6)              118.9837         estimate D2E/DX2                !
 ! A14   A(4,5,14)             118.9833         estimate D2E/DX2                !
 ! A15   A(6,5,14)             122.033          estimate D2E/DX2                !
 ! A16   A(1,6,5)              121.0162         estimate D2E/DX2                !
 ! A17   A(1,6,18)             120.6712         estimate D2E/DX2                !
 ! A18   A(5,6,18)             118.3127         estimate D2E/DX2                !
 ! A19   A(3,7,10)             119.9999         estimate D2E/DX2                !
 ! A20   A(3,7,19)             120.0            estimate D2E/DX2                !
 ! A21   A(10,7,19)            120.0            estimate D2E/DX2                !
 ! A22   A(4,8,9)              120.0007         estimate D2E/DX2                !
 ! A23   A(4,8,12)             119.9995         estimate D2E/DX2                !
 ! A24   A(9,8,12)             119.9999         estimate D2E/DX2                !
 ! A25   A(8,9,10)             119.9994         estimate D2E/DX2                !
 ! A26   A(8,9,11)             120.0            estimate D2E/DX2                !
 ! A27   A(10,9,11)            120.0006         estimate D2E/DX2                !
 ! A28   A(7,10,9)             120.0002         estimate D2E/DX2                !
 ! A29   A(7,10,22)            119.9996         estimate D2E/DX2                !
 ! A30   A(9,10,22)            120.0001         estimate D2E/DX2                !
 ! A31   A(9,11,25)            118.9824         estimate D2E/DX2                !
 ! A32   A(9,11,32)            118.9835         estimate D2E/DX2                !
 ! A33   A(25,11,32)           122.0341         estimate D2E/DX2                !
 ! A34   A(8,12,13)            118.9838         estimate D2E/DX2                !
 ! A35   A(8,12,31)            118.9832         estimate D2E/DX2                !
 ! A36   A(13,12,31)           122.0331         estimate D2E/DX2                !
 ! A37   A(12,13,14)           121.0164         estimate D2E/DX2                !
 ! A38   A(12,13,16)           118.3128         estimate D2E/DX2                !
 ! A39   A(14,13,16)           120.6708         estimate D2E/DX2                !
 ! A40   A(5,14,13)            121.0169         estimate D2E/DX2                !
 ! A41   A(5,14,15)            118.3126         estimate D2E/DX2                !
 ! A42   A(13,14,15)           120.6705         estimate D2E/DX2                !
 ! A43   A(7,19,20)            118.9834         estimate D2E/DX2                !
 ! A44   A(7,19,30)            118.9831         estimate D2E/DX2                !
 ! A45   A(20,19,30)           122.0335         estimate D2E/DX2                !
 ! A46   A(19,20,21)           121.0165         estimate D2E/DX2                !
 ! A47   A(19,20,23)           118.3126         estimate D2E/DX2                !
 ! A48   A(21,20,23)           120.6708         estimate D2E/DX2                !
 ! A49   A(20,21,22)           121.0166         estimate D2E/DX2                !
 ! A50   A(20,21,24)           120.6708         estimate D2E/DX2                !
 ! A51   A(22,21,24)           118.3126         estimate D2E/DX2                !
 ! A52   A(10,22,21)           118.9839         estimate D2E/DX2                !
 ! A53   A(10,22,27)           118.983          estimate D2E/DX2                !
 ! A54   A(21,22,27)           122.0331         estimate D2E/DX2                !
 ! A55   A(11,25,26)           118.312          estimate D2E/DX2                !
 ! A56   A(11,25,27)           121.0175         estimate D2E/DX2                !
 ! A57   A(26,25,27)           120.6705         estimate D2E/DX2                !
 ! A58   A(22,27,25)           121.0163         estimate D2E/DX2                !
 ! A59   A(22,27,28)           118.3138         estimate D2E/DX2                !
 ! A60   A(25,27,28)           120.6698         estimate D2E/DX2                !
 ! D1    D(6,1,2,3)             -0.0001         estimate D2E/DX2                !
 ! D2    D(6,1,2,29)          -179.9926         estimate D2E/DX2                !
 ! D3    D(17,1,2,3)           179.9996         estimate D2E/DX2                !
 ! D4    D(17,1,2,29)            0.0072         estimate D2E/DX2                !
 ! D5    D(2,1,6,5)             -0.0027         estimate D2E/DX2                !
 ! D6    D(2,1,6,18)          -179.9999         estimate D2E/DX2                !
 ! D7    D(17,1,6,5)           179.9975         estimate D2E/DX2                !
 ! D8    D(17,1,6,18)            0.0003         estimate D2E/DX2                !
 ! D9    D(1,2,3,4)              0.0081         estimate D2E/DX2                !
 ! D10   D(1,2,3,7)            179.9978         estimate D2E/DX2                !
 ! D11   D(29,2,3,4)          -179.9986         estimate D2E/DX2                !
 ! D12   D(29,2,3,7)            -0.009          estimate D2E/DX2                !
 ! D13   D(2,3,4,5)             -0.0135         estimate D2E/DX2                !
 ! D14   D(2,3,4,8)            179.983          estimate D2E/DX2                !
 ! D15   D(7,3,4,5)            179.9969         estimate D2E/DX2                !
 ! D16   D(7,3,4,8)             -0.0067         estimate D2E/DX2                !
 ! D17   D(2,3,7,10)          -179.9722         estimate D2E/DX2                !
 ! D18   D(2,3,7,19)             0.0222         estimate D2E/DX2                !
 ! D19   D(4,3,7,10)             0.0174         estimate D2E/DX2                !
 ! D20   D(4,3,7,19)          -179.9881         estimate D2E/DX2                !
 ! D21   D(3,4,5,6)              0.0106         estimate D2E/DX2                !
 ! D22   D(3,4,5,14)          -179.9952         estimate D2E/DX2                !
 ! D23   D(8,4,5,6)           -179.9858         estimate D2E/DX2                !
 ! D24   D(8,4,5,14)             0.0083         estimate D2E/DX2                !
 ! D25   D(3,4,8,9)             -0.0094         estimate D2E/DX2                !
 ! D26   D(3,4,8,12)          -179.9982         estimate D2E/DX2                !
 ! D27   D(5,4,8,9)            179.9871         estimate D2E/DX2                !
 ! D28   D(5,4,8,12)            -0.0018         estimate D2E/DX2                !
 ! D29   D(4,5,6,1)             -0.0026         estimate D2E/DX2                !
 ! D30   D(4,5,6,18)           179.9947         estimate D2E/DX2                !
 ! D31   D(14,5,6,1)          -179.9966         estimate D2E/DX2                !
 ! D32   D(14,5,6,18)            0.0007         estimate D2E/DX2                !
 ! D33   D(4,5,14,13)           -0.0062         estimate D2E/DX2                !
 ! D34   D(4,5,14,15)          179.9964         estimate D2E/DX2                !
 ! D35   D(6,5,14,13)          179.9878         estimate D2E/DX2                !
 ! D36   D(6,5,14,15)           -0.0096         estimate D2E/DX2                !
 ! D37   D(3,7,10,9)            -0.0121         estimate D2E/DX2                !
 ! D38   D(3,7,10,22)          179.9831         estimate D2E/DX2                !
 ! D39   D(19,7,10,9)          179.9934         estimate D2E/DX2                !
 ! D40   D(19,7,10,22)          -0.0114         estimate D2E/DX2                !
 ! D41   D(3,7,19,20)          179.9989         estimate D2E/DX2                !
 ! D42   D(3,7,19,30)           -0.0152         estimate D2E/DX2                !
 ! D43   D(10,7,19,20)          -0.0067         estimate D2E/DX2                !
 ! D44   D(10,7,19,30)         179.9793         estimate D2E/DX2                !
 ! D45   D(4,8,9,10)             0.0146         estimate D2E/DX2                !
 ! D46   D(4,8,9,11)          -179.9822         estimate D2E/DX2                !
 ! D47   D(12,8,9,10)         -179.9965         estimate D2E/DX2                !
 ! D48   D(12,8,9,11)            0.0067         estimate D2E/DX2                !
 ! D49   D(4,8,12,13)           -0.0069         estimate D2E/DX2                !
 ! D50   D(4,8,12,31)          179.9922         estimate D2E/DX2                !
 ! D51   D(9,8,12,13)         -179.9958         estimate D2E/DX2                !
 ! D52   D(9,8,12,31)            0.0033         estimate D2E/DX2                !
 ! D53   D(8,9,10,7)            -0.0039         estimate D2E/DX2                !
 ! D54   D(8,9,10,22)         -179.9991         estimate D2E/DX2                !
 ! D55   D(11,9,10,7)          179.993          estimate D2E/DX2                !
 ! D56   D(11,9,10,22)          -0.0022         estimate D2E/DX2                !
 ! D57   D(8,9,11,25)          179.9811         estimate D2E/DX2                !
 ! D58   D(8,9,11,32)           -0.0088         estimate D2E/DX2                !
 ! D59   D(10,9,11,25)          -0.0158         estimate D2E/DX2                !
 ! D60   D(10,9,11,32)         179.9943         estimate D2E/DX2                !
 ! D61   D(7,10,22,21)           0.0166         estimate D2E/DX2                !
 ! D62   D(7,10,22,27)        -179.9811         estimate D2E/DX2                !
 ! D63   D(9,10,22,21)        -179.9882         estimate D2E/DX2                !
 ! D64   D(9,10,22,27)           0.0141         estimate D2E/DX2                !
 ! D65   D(9,11,25,26)        -179.9744         estimate D2E/DX2                !
 ! D66   D(9,11,25,27)           0.0223         estimate D2E/DX2                !
 ! D67   D(32,11,25,26)          0.0152         estimate D2E/DX2                !
 ! D68   D(32,11,25,27)       -179.9881         estimate D2E/DX2                !
 ! D69   D(8,12,13,14)           0.0093         estimate D2E/DX2                !
 ! D70   D(8,12,13,16)        -179.9941         estimate D2E/DX2                !
 ! D71   D(31,12,13,14)       -179.9898         estimate D2E/DX2                !
 ! D72   D(31,12,13,16)          0.0068         estimate D2E/DX2                !
 ! D73   D(12,13,14,5)          -0.0027         estimate D2E/DX2                !
 ! D74   D(12,13,14,15)        179.9947         estimate D2E/DX2                !
 ! D75   D(16,13,14,5)        -179.9993         estimate D2E/DX2                !
 ! D76   D(16,13,14,15)         -0.0019         estimate D2E/DX2                !
 ! D77   D(7,19,20,21)           0.0199         estimate D2E/DX2                !
 ! D78   D(7,19,20,23)        -179.9904         estimate D2E/DX2                !
 ! D79   D(30,19,20,21)       -179.9656         estimate D2E/DX2                !
 ! D80   D(30,19,20,23)          0.0241         estimate D2E/DX2                !
 ! D81   D(19,20,21,22)         -0.0148         estimate D2E/DX2                !
 ! D82   D(19,20,21,24)        179.9861         estimate D2E/DX2                !
 ! D83   D(23,20,21,22)        179.9958         estimate D2E/DX2                !
 ! D84   D(23,20,21,24)         -0.0033         estimate D2E/DX2                !
 ! D85   D(20,21,22,10)         -0.0036         estimate D2E/DX2                !
 ! D86   D(20,21,22,27)        179.994          estimate D2E/DX2                !
 ! D87   D(24,21,22,10)        179.9955         estimate D2E/DX2                !
 ! D88   D(24,21,22,27)         -0.0069         estimate D2E/DX2                !
 ! D89   D(10,22,27,25)         -0.0079         estimate D2E/DX2                !
 ! D90   D(10,22,27,28)        179.9919         estimate D2E/DX2                !
 ! D91   D(21,22,27,25)        179.9945         estimate D2E/DX2                !
 ! D92   D(21,22,27,28)         -0.0057         estimate D2E/DX2                !
 ! D93   D(11,25,27,22)         -0.0105         estimate D2E/DX2                !
 ! D94   D(11,25,27,28)        179.9897         estimate D2E/DX2                !
 ! D95   D(26,25,27,22)        179.9862         estimate D2E/DX2                !
 ! D96   D(26,25,27,28)         -0.0136         estimate D2E/DX2                !
 --------------------------------------------------------------------------------
 Trust Radius=3.00D-01 FncErr=1.00D-07 GrdErr=1.00D-06 EigMax=2.50D+02 EigMin=1.00D-04
 Number of steps in this run=    192 maximum allowed number of steps=    192.
 GradGradGradGradGradGradGradGradGradGradGradGradGradGradGradGradGradGrad

 Leave Link  103 at Tue May  7 11:17:20 2024, MaxMem=120795955200 cpu:               3.9 elap:               0.0
 (Enter /apps/gaussian/g16-c01-avx2/g16/l202.exe)
                          Input orientation:                          
 ---------------------------------------------------------------------
 Center     Atomic      Atomic             Coordinates (Angstroms)
 Number     Number       Type             X           Y           Z
 ---------------------------------------------------------------------
      1          6           0       -1.205690   -3.397535   -0.000151
      2          6           0        0.219572   -3.397535   -0.000151
      3          6           0        0.902150   -2.165284   -0.000151
      4          6           0        0.165723   -0.940503    0.000025
      5          6           0       -1.242725   -0.965515   -0.000088
      6          6           0       -1.911105   -2.224340   -0.000148
      7          6           0        2.331042   -2.139910   -0.000103
      8          6           0        0.858200    0.309639    0.000393
      9          6           0        2.287097    0.335024    0.000787
     10          6           0        3.023518   -0.889755    0.000497
     11          6           0        2.969647    1.567280    0.001528
     12          6           0        0.132307    1.516886    0.000604
     13          6           0       -1.292056    1.466303    0.000294
     14          6           0       -1.955370    0.268790   -0.000012
     15          1           0       -3.055651    0.236364   -0.000163
     16          1           0       -1.848193    2.416240    0.000363
     17          1           0       -1.727757   -4.366616   -0.000157
     18          1           0       -3.011841   -2.230994   -0.000146
     19          6           0        3.056922   -3.347148   -0.000529
     20          6           0        4.481288   -3.296562   -0.000496
     21          6           0        5.144603   -2.099050    0.000348
     22          6           0        4.431955   -0.864752    0.000905
     23          1           0        5.037420   -4.246493   -0.000993
     24          1           0        6.244883   -2.066620    0.000598
     25          6           0        4.394909    1.567285    0.002321
     26          1           0        4.916973    2.536386    0.003328
     27          6           0        5.100332    0.394085    0.001913
     28          1           0        6.201072    0.400768    0.002360
     29          1           0        0.860785   -4.291317   -0.000269
     30          1           0        2.506930   -4.299780   -0.000641
     31          1           0        0.682294    2.469522    0.001017
     32          1           0        2.386177    2.499783    0.001646
 ---------------------------------------------------------------------
                    Distance matrix (angstroms):
                    1          2          3          4          5
     1  C    0.000000
     2  C    1.425262   0.000000
     3  C    2.441604   1.408671   0.000000
     4  C    2.813855   2.457622   1.429130   0.000000
     5  C    2.432302   2.837787   2.457628   1.408670   0.000000
     6  C    1.368940   2.432318   2.813875   2.441608   1.425262
     7  C    3.753677   2.457626   1.429117   2.475315   3.761783
     8  C    4.242968   3.761780   2.475313   1.429118   2.457622
     9  C    5.111904   4.266926   2.858255   2.475318   3.761788
    10  C    4.916824   3.761791   2.475313   2.858246   4.266916
    11  C    6.487128   5.675588   4.266917   3.761777   4.915194
    12  C    5.093306   4.915196   3.761786   2.457616   2.837786
    13  C    4.864605   5.093323   4.242990   2.813865   2.432318
    14  C    3.742186   4.262899   3.753683   2.441603   1.425262
    15  H    4.077693   4.892066   4.629482   3.429616   2.175135
    16  H    5.849170   6.170546   5.343664   3.914535   3.435529
    17  H    1.100760   2.175134   3.429617   3.914526   3.435512
    18  H    2.150116   3.435527   3.914543   3.429618   2.175134
    19  C    4.262910   2.837797   2.457610   3.761778   4.915195
    20  C    5.687874   4.262912   3.753667   4.916820   6.180462
    21  C    6.481688   5.093328   4.242970   5.111896   6.487130
    22  C    6.180456   4.915197   3.761769   4.266905   5.675575
    23  H    6.300568   4.892074   4.629459   5.887529   7.085551
    24  H    7.568512   6.170552   5.343644   6.182582   7.568138
    25  C    7.484394   6.487132   5.111892   4.916810   6.180453
    26  H    8.526338   7.568157   6.182598   5.887541   7.085563
    27  C    7.358145   6.180470   4.916819   5.111897   6.487133
    28  H    8.323895   7.085581   5.887546   6.182593   7.568147
    29  H    2.251481   1.100000   2.126435   3.422143   3.935189
    30  H    3.820680   2.458872   2.670467   4.094630   5.017693
    31  H    6.163346   5.885275   4.640017   3.448929   3.937661
    32  H    6.905061   6.282718   4.895426   4.094629   5.017691
                    6          7          8          9         10
     6  C    0.000000
     7  C    4.242987   0.000000
     8  C    3.753678   2.858243   0.000000
     9  C    4.916833   2.475324   1.429123   0.000000
    10  C    5.111910   1.429129   2.475308   1.429125   0.000000
    11  C    6.180463   3.761792   2.457615   1.408662   2.457626
    12  C    4.262899   4.266918   1.408675   2.457624   3.761784
    13  C    3.742201   5.111909   2.441613   3.753682   4.916827
    14  C    2.493523   4.916825   2.813867   4.242984   5.111903
    15  H    2.713863   5.887541   3.914537   5.343659   6.182592
    16  H    4.641006   6.182597   3.429625   4.629480   5.887544
    17  H    2.150108   4.629478   5.343644   6.182594   5.887544
    18  H    1.100756   5.343659   4.629474   5.887546   6.182595
    19  C    5.093328   1.408661   4.266904   3.761785   2.457620
    20  C    6.481693   2.441598   5.111893   4.242982   2.813861
    21  C    7.056820   2.813858   4.916811   3.753672   2.441597
    22  C    6.487133   2.457614   3.761771   2.457616   1.408659
    23  H    7.236788   3.429603   6.182574   5.343648   3.914523
    24  H    8.157513   3.914527   5.887526   4.629467   3.429607
    25  C    7.358141   4.242976   3.753663   2.441586   2.813852
    26  H    8.323892   5.343669   4.629476   3.429614   3.914540
    27  C    7.484411   3.753678   4.242973   2.813855   2.441599
    28  H    8.526348   4.629491   5.343649   3.914527   3.429621
    29  H    3.457711   2.605802   4.600956   4.841218   4.030885
    30  H    4.881238   2.167020   4.895412   4.640015   3.448933
    31  H    5.362654   4.895430   2.167034   2.670482   4.094639
    32  H    6.386233   4.640021   2.670477   2.167026   3.448938
                   11         12         13         14         15
    11  C    0.000000
    12  C    2.837788   0.000000
    13  C    4.262899   1.425261   0.000000
    14  C    5.093316   2.432312   1.368950   0.000000
    15  H    6.170539   3.435522   2.150120   1.100759   0.000000
    16  H    4.892067   2.175136   1.100758   2.150123   2.491950
    17  H    7.568139   6.170530   5.849169   4.640991   4.790692
    18  H    7.085555   4.892062   4.077703   2.713863   2.467747
    19  C    4.915203   5.675579   6.487135   6.180459   7.085556
    20  C    5.093331   6.487135   7.484409   7.358145   8.323882
    21  C    4.262911   6.180462   7.358147   7.484403   8.526331
    22  C    2.837803   4.915198   6.180463   6.487129   7.568137
    23  H    6.170547   7.568135   8.526330   8.323875   9.251692
    24  H    4.892075   7.085556   8.323881   8.526329   9.581423
    25  C    1.425262   4.262900   5.687862   6.481677   7.568501
    26  H    2.175143   4.892077   6.300566   7.236788   8.297762
    27  C    2.432325   5.093325   6.481688   7.056815   8.157508
    28  H    3.435529   6.170545   7.568510   8.157510   9.258183
    29  H    6.226593   5.853708   6.146943   5.359599   5.986515
    30  H    5.885279   6.282710   6.905072   6.386232   7.177668
    31  H    2.458867   1.100000   2.214611   3.435184   4.354219
    32  H    1.100000   2.458865   3.820665   4.881225   5.893773
                   16         17         18         19         20
    16  H    0.000000
    17  H    6.783925   0.000000
    18  H    4.790706   2.491938   0.000000
    19  C    7.568143   4.892082   6.170550   0.000000
    20  C    8.526338   6.300576   7.568515   1.425264   0.000000
    21  C    8.323884   7.236794   8.157511   2.432316   1.368949
    22  C    7.085561   7.085556   7.568138   2.837782   2.432311
    23  H    9.581424   6.766243   8.297761   2.175131   1.100751
    24  H    9.251698   8.297769   9.258183   3.435527   2.150122
    25  C    6.300560   8.526325   8.323874   5.093316   4.864615
    26  H    6.766233   9.581434   9.251703   6.170557   5.849198
    27  C    7.236789   8.323886   8.526335   4.262904   3.742205
    28  H    8.297759   9.251718   9.581437   4.892092   4.077734
    29  H    7.233939   2.589637   4.386589   2.390496   3.754674
    30  H    8.004501   4.235214   5.893786   1.100000   2.214619
    31  H    2.531047   7.248526   5.978418   6.282715   6.905077
    32  H    4.235194   8.004492   7.177663   5.885279   6.163369
                   21         22         23         24         25
    21  C    0.000000
    22  C    1.425258   0.000000
    23  H    2.150117   3.435515   0.000000
    24  H    1.100758   2.175131   2.491950   0.000000
    25  C    3.742200   2.432320   5.849175   4.077704   0.000000
    26  H    4.641023   3.435548   6.783950   4.790722   1.100776
    27  C    2.493529   1.425272   4.641005   2.713866   1.368949
    28  H    2.713894   2.175159   4.790734   2.467778   2.150113
    29  H    4.812185   4.949202   4.176875   5.825614   6.842021
    30  H    3.435191   3.937657   2.531051   4.354228   6.163354
    31  H    6.386239   5.017703   8.004498   7.177673   3.820674
    32  H    5.362666   3.937678   7.248541   5.978432   2.214624
                   26         27         28         29         30
    26  H    0.000000
    27  C    2.150134   0.000000
    28  H    2.491942   1.100760   0.000000
    29  H    7.941674   6.318762   7.108750   0.000000
    30  H    7.248551   5.362659   5.978449   1.646166   0.000000
    31  H    4.235208   4.881240   5.893781   6.763194   7.010902
    32  H    2.531062   3.435201   4.354227   6.960306   6.800636
                   31         32
    31  H    0.000000
    32  H    1.704152   0.000000
 Stoichiometry    C20H12(1+,2)
 Framework group  C1[X(C20H12)]
 Deg. of freedom    90
 Full point group                 C1      NOp   1
 Largest Abelian subgroup         C1      NOp   1
 Largest concise Abelian subgroup C1      NOp   1
                         Standard orientation:                         
 ---------------------------------------------------------------------
 Center     Atomic      Atomic             Coordinates (Angstroms)
 Number     Number       Type             X           Y           Z
 ---------------------------------------------------------------------
      1          6           0       -2.842790   -2.434440    0.000658
      2          6           0       -1.417737   -2.458814    0.000437
      3          6           0       -0.714186   -1.238416   -0.000057
      4          6           0       -1.429560   -0.001220   -0.000152
      5          6           0       -2.838230   -0.002143   -0.000038
      6          6           0       -3.528039   -1.249354    0.000402
      7          6           0        0.714931   -1.237481   -0.000238
      8          6           0       -0.715806    1.236897   -0.000284
      9          6           0        0.713317    1.237842   -0.000120
     10          6           0        1.428685    0.000649   -0.000139
     11          6           0        1.416840    2.458246    0.000127
     12          6           0       -1.420947    2.456381   -0.000341
     13          6           0       -2.845967    2.430163   -0.000414
     14          6           0       -3.529663    1.244169   -0.000240
     15          1           0       -4.630337    1.230563   -0.000210
     16          1           0       -3.385778    3.389472   -0.000557
     17          1           0       -3.381353   -3.394452    0.001038
     18          1           0       -4.628728   -1.237183    0.000577
     19          6           0        1.420060   -2.456956   -0.000397
     20          6           0        2.845083   -2.430736   -0.000601
     21          6           0        3.528780   -1.244742   -0.000237
     22          6           0        2.837344    0.001563    0.000042
     23          1           0        3.384888   -3.390038   -0.000885
     24          1           0        4.629453   -1.231133   -0.000168
     25          6           0        2.841894    2.433878    0.000699
     26          1           0        3.380454    3.393910    0.001320
     27          6           0        3.527150    1.248786    0.000551
     28          1           0        4.627844    1.236644    0.000825
     29          1           0       -0.791902   -3.363430    0.000501
     30          1           0        0.853857   -3.400044   -0.000124
     31          1           0       -0.854750    3.399472   -0.000312
     32          1           0        0.849402    3.400591    0.000042
 ---------------------------------------------------------------------
 Rotational constants (GHZ):           0.6156440           0.3404150           0.2192066
 Leave Link  202 at Tue May  7 11:17:24 2024, MaxMem=120795955200 cpu:               7.0 elap:               0.1
 (Enter /apps/gaussian/g16-c01-avx2/g16/l301.exe)
 Standard basis: def2TZVP (5D, 7F)
 Ernie: Thresh=  0.10000D-02 Tol=  0.10000D-05 Strict=F.
 There are   792 symmetry adapted cartesian basis functions of A   symmetry.
 There are   692 symmetry adapted basis functions of A   symmetry.
   692 basis functions,  1116 primitive gaussians,   792 cartesian basis functions
    66 alpha electrons       65 beta electrons
       nuclear repulsion energy      1371.1535598562 Hartrees.
 IExCor=  402 DFT=T Ex+Corr=B3LYP ExCW=0 ScaHFX=  0.200000
 ScaDFX=  0.800000  0.720000  1.000000  0.810000 ScalE2=  1.000000  1.000000
 IRadAn=      5 IRanWt=     -1 IRanGd=            0 ICorTp=0 IEmpDi=  4
 NAtoms=   32 NActive=   32 NUniq=   32 SFac= 1.00D+00 NAtFMM=   60 NAOKFM=F Big=F
 Integral buffers will be    131072 words long.
 Raffenetti 2 integral format.
 Two-electron integral symmetry is turned on.
 Leave Link  301 at Tue May  7 11:17:25 2024, MaxMem=120795955200 cpu:               8.1 elap:               0.1
 (Enter /apps/gaussian/g16-c01-avx2/g16/l302.exe)
 NPDir=0 NMtPBC=     1 NCelOv=     1 NCel=       1 NClECP=     1 NCelD=      1
         NCelK=      1 NCelE2=     1 NClLst=     1 CellRange=     0.0.
 One-electron integrals computed using PRISM.
 One-electron integral symmetry used in STVInt
   1 Symmetry operations used in ECPInt.
 ECPInt:  NShTT=   36046 NPrTT=  112104 LenC2=   32797 LenP2D=   74007.
 LDataN:  DoStor=T MaxTD1= 6 Len=  172
 NBasis=   692 RedAO= T EigKep=  1.59D-06  NBF=   692
 NBsUse=   692 1.00D-06 EigRej= -1.00D+00 NBFU=   692
 Precomputing XC quadrature grid using
 IXCGrd= 4 IRadAn=           5 IRanWt=          -1 IRanGd=           0 AccXCQ= 0.00D+00.
 Generated NRdTot=       0 NPtTot=           0 NUsed=           0 NTot=          32
 NSgBfM=   782   782   782   782   782 MxSgAt=    32 MxSgA2=    32.
 Leave Link  302 at Tue May  7 11:17:27 2024, MaxMem=120795955200 cpu:             123.4 elap:               1.0
 (Enter /apps/gaussian/g16-c01-avx2/g16/l303.exe)
 DipDrv:  MaxL=1.
 Leave Link  303 at Tue May  7 11:17:28 2024, MaxMem=120795955200 cpu:               9.8 elap:               0.1
 (Enter /apps/gaussian/g16-c01-avx2/g16/l401.exe)
 ExpMin= 9.52D-02 ExpMax= 1.36D+04 ExpMxC= 4.63D+02 IAcc=3 IRadAn=         5 AccDes= 0.00D+00
 Harris functional with IExCor=  402 and IRadAn=       5 diagonalized for initial guess.
 HarFok:  IExCor=  402 AccDes= 0.00D+00 IRadAn=         5 IDoV= 1 UseB2=F ITyADJ=14
 ICtDFT=  3500011 ScaDFX=  1.000000  1.000000  1.000000  1.000000
 FoFCou: FMM=F IPFlag=           0 FMFlag=      100000 FMFlg1=           0
         NFxFlg=           0 DoJE=T BraDBF=F KetDBF=T FulRan=T
         wScrn=  0.000000 ICntrl=       500 IOpCl=  0 I1Cent=   200000004 NGrid=           0
         NMat0=    1 NMatS0=      1 NMatT0=    0 NMatD0=    1 NMtDS0=    0 NMtDT0=    0
 Petite list used in FoFCou.
 Harris En= -769.400215671223    
 JPrj=0 DoOrth=F DoCkMO=F.
 Initial guess <Sx>= 0.0000 <Sy>= 0.0000 <Sz>= 0.5000 <S**2>= 0.7500 S= 0.5000
 Leave Link  401 at Tue May  7 11:17:31 2024, MaxMem=120795955200 cpu:             140.7 elap:               1.2
 (Enter /apps/gaussian/g16-c01-avx2/g16/l502.exe)
 Integral symmetry usage will be decided dynamically.
 UHF open shell SCF:
 Using DIIS extrapolation, IDIIS=  1040.
 NGot=120795955200 LenX=120794591754 LenY=120793963698
 Requested convergence on RMS density matrix=1.00D-08 within 128 cycles.
 Requested convergence on MAX density matrix=1.00D-06.
 Requested convergence on             energy=1.00D-06.
 No special actions if energy rises.
 Fock matrices will be formed incrementally for  20 cycles.
 Integral accuracy reduced to 1.0D-05 until final iterations.

 Cycle   1  Pass 0  IDiag  1:
 FoFJK:  IHMeth= 1 ICntrl=       0 DoSepK=F KAlg= 0 I1Cent=           0 FoldK=F
 IRaf= 850000000 NMat=       1 IRICut=       1 DoRegI=T DoRafI=F ISym2E= 0 IDoP0=0 IntGTp=1.
 FoFCou: FMM=F IPFlag=           0 FMFlag=      100000 FMFlg1=           0
         NFxFlg=           0 DoJE=F BraDBF=F KetDBF=F FulRan=T
         wScrn=  0.000000 ICntrl=         0 IOpCl=  1 I1Cent=           0 NGrid=           0
         NMat0=    1 NMatS0=      1 NMatT0=    0 NMatD0=    1 NMtDS0=    0 NMtDT0=    0
 Symmetry not used in FoFCou.
 E= -769.107094866237    
 DIIS: error= 2.65D-02 at cycle   1 NSaved=   1.
 NSaved= 1 IEnMin= 1 EnMin= -769.107094866237     IErMin= 1 ErrMin= 2.65D-02
 ErrMax= 2.65D-02  0.00D+00 EMaxC= 1.00D-01 BMatC= 1.28D+00 BMatP= 1.28D+00
 IDIUse=3 WtCom= 7.35D-01 WtEn= 2.65D-01
 Coeff-Com:  0.100D+01
 Coeff-En:   0.100D+01
 Coeff:      0.100D+01
 Gap=     0.103 Goal=   None    Shift=    0.000
 Gap=     0.091 Goal=   None    Shift=    0.000
 GapD=    0.091 DampG=0.500 DampE=0.500 DampFc=0.2500 IDamp=-1.
 Damping current iteration by 2.50D-01
 RMSDP=2.27D+02 MaxDP=2.16D+04              OVMax= 9.98D-01

 Problem detected with inexpensive integrals.
 Switching to full accuracy and repeating last cycle.
 Cycle   2  Pass 1  IDiag  1:
 E= -769.107166313516     Delta-E=       -0.000071447279 Rises=F Damp=F
 DIIS: error= 2.65D-02 at cycle   1 NSaved=   1.
 NSaved= 1 IEnMin= 1 EnMin= -769.107166313516     IErMin= 1 ErrMin= 2.65D-02
 ErrMax= 2.65D-02  0.00D+00 EMaxC= 1.00D-01 BMatC= 1.28D+00 BMatP= 1.28D+00
 IDIUse=3 WtCom= 7.35D-01 WtEn= 2.65D-01
 Coeff-Com:  0.100D+01
 Coeff-En:   0.100D+01
 Coeff:      0.100D+01
 Gap=     0.103 Goal=   None    Shift=    0.000
 Gap=     0.091 Goal=   None    Shift=    0.000
 GapD=    0.091 DampG=0.500 DampE=0.500 DampFc=0.2500 IDamp=-1.
 Damping current iteration by 2.50D-01
 RMSDP=1.96D-03 MaxDP=4.98D-02 DE=-7.14D-05 OVMax= 1.53D-01

 Cycle   3  Pass 1  IDiag  1:
 RMSU=  4.62D-04    CP:  9.75D-01
 E= -769.211591604106     Delta-E=       -0.104425290590 Rises=F Damp=T
 DIIS: error= 1.61D-02 at cycle   2 NSaved=   2.
 NSaved= 2 IEnMin= 2 EnMin= -769.211591604106     IErMin= 2 ErrMin= 1.61D-02
 ErrMax= 1.61D-02  0.00D+00 EMaxC= 1.00D-01 BMatC= 4.41D-01 BMatP= 1.28D+00
 IDIUse=3 WtCom= 8.39D-01 WtEn= 1.61D-01
 Coeff-Com: -0.119D+01 0.219D+01
 Coeff-En:   0.000D+00 0.100D+01
 Coeff:     -0.995D+00 0.199D+01
 Gap=     0.112 Goal=   None    Shift=    0.000
 Gap=     0.093 Goal=   None    Shift=    0.000
 GapD=    0.093 DampG=0.500 DampE=0.500 DampFc=0.2500 IDamp=-1.
 Damping current iteration by 2.50D-01
 RMSDP=1.05D-03 MaxDP=5.45D-02 DE=-1.04D-01 OVMax= 1.27D-01

 Cycle   4  Pass 1  IDiag  1:
 RMSU=  1.64D-04    CP:  9.58D-01  1.38D+00
 E= -769.265060680331     Delta-E=       -0.053469076225 Rises=F Damp=T
 DIIS: error= 1.17D-02 at cycle   3 NSaved=   3.
 NSaved= 3 IEnMin= 3 EnMin= -769.265060680331     IErMin= 3 ErrMin= 1.17D-02
 ErrMax= 1.17D-02  0.00D+00 EMaxC= 1.00D-01 BMatC= 2.48D-01 BMatP= 4.41D-01
 IDIUse=3 WtCom= 8.83D-01 WtEn= 1.17D-01
 Coeff-Com: -0.592D+00-0.639D+00 0.223D+01
 Coeff-En:   0.000D+00 0.000D+00 0.100D+01
 Coeff:     -0.523D+00-0.565D+00 0.209D+01
 Gap=     0.106 Goal=   None    Shift=    0.000
 Gap=     0.093 Goal=   None    Shift=    0.000
 RMSDP=7.78D-04 MaxDP=4.03D-02 DE=-5.35D-02 OVMax= 8.29D-02

 Cycle   5  Pass 1  IDiag  1:
 RMSU=  2.56D-04    CP:  9.12D-01  2.54D+00  3.00D+00
 E= -769.402639968846     Delta-E=       -0.137579288515 Rises=F Damp=F
 DIIS: error= 8.95D-03 at cycle   4 NSaved=   4.
 NSaved= 4 IEnMin= 4 EnMin= -769.402639968846     IErMin= 4 ErrMin= 8.95D-03
 ErrMax= 8.95D-03  0.00D+00 EMaxC= 1.00D-01 BMatC= 3.20D-02 BMatP= 2.48D-01
 IDIUse=3 WtCom= 9.11D-01 WtEn= 8.95D-02
 Coeff-Com: -0.142D+00-0.956D+00 0.161D+01 0.487D+00
 Coeff-En:   0.000D+00 0.000D+00 0.000D+00 0.100D+01
 Coeff:     -0.129D+00-0.870D+00 0.147D+01 0.533D+00
 Gap=     0.107 Goal=   None    Shift=    0.000
 Gap=     0.092 Goal=   None    Shift=    0.000
 RMSDP=1.46D-04 MaxDP=5.98D-03 DE=-1.38D-01 OVMax= 4.88D-02

 Cycle   6  Pass 1  IDiag  1:
 RMSU=  1.23D-04    CP:  9.10D-01  2.53D+00  3.00D+00  6.95D-01
 E= -769.411155799871     Delta-E=       -0.008515831026 Rises=F Damp=F
 DIIS: error= 2.94D-03 at cycle   5 NSaved=   5.
 NSaved= 5 IEnMin= 5 EnMin= -769.411155799871     IErMin= 5 ErrMin= 2.94D-03
 ErrMax= 2.94D-03  0.00D+00 EMaxC= 1.00D-01 BMatC= 3.85D-03 BMatP= 3.20D-02
 IDIUse=3 WtCom= 9.71D-01 WtEn= 2.94D-02
 Coeff-Com: -0.187D-01-0.284D+00 0.423D+00 0.311D+00 0.568D+00
 Coeff-En:   0.000D+00 0.000D+00 0.000D+00 0.142D+00 0.858D+00
 Coeff:     -0.182D-01-0.276D+00 0.411D+00 0.306D+00 0.577D+00
 Gap=     0.106 Goal=   None    Shift=    0.000
 Gap=     0.092 Goal=   None    Shift=    0.000
 RMSDP=4.16D-05 MaxDP=2.04D-03 DE=-8.52D-03 OVMax= 1.57D-02

 Cycle   7  Pass 1  IDiag  1:
 RMSU=  2.47D-05    CP:  9.10D-01  2.54D+00  3.00D+00  7.79D-01  7.94D-01
 E= -769.412258291216     Delta-E=       -0.001102491345 Rises=F Damp=F
 DIIS: error= 4.45D-04 at cycle   6 NSaved=   6.
 NSaved= 6 IEnMin= 6 EnMin= -769.412258291216     IErMin= 6 ErrMin= 4.45D-04
 ErrMax= 4.45D-04  0.00D+00 EMaxC= 1.00D-01 BMatC= 2.26D-04 BMatP= 3.85D-03
 IDIUse=3 WtCom= 9.96D-01 WtEn= 4.45D-03
 Coeff-Com:  0.441D-02-0.711D-01 0.844D-01 0.134D+00 0.337D+00 0.511D+00
 Coeff-En:   0.000D+00 0.000D+00 0.000D+00 0.000D+00 0.000D+00 0.100D+01
 Coeff:      0.439D-02-0.708D-01 0.840D-01 0.133D+00 0.336D+00 0.514D+00
 Gap=     0.106 Goal=   None    Shift=    0.000
 Gap=     0.092 Goal=   None    Shift=    0.000
 RMSDP=1.01D-05 MaxDP=6.20D-04 DE=-1.10D-03 OVMax= 3.16D-03

 Cycle   8  Pass 1  IDiag  1:
 RMSU=  9.75D-06    CP:  9.10D-01  2.54D+00  3.00D+00  7.79D-01  8.08D-01
                    CP:  9.44D-01
 E= -769.412324265438     Delta-E=       -0.000065974222 Rises=F Damp=F
 DIIS: error= 2.02D-04 at cycle   7 NSaved=   7.
 NSaved= 7 IEnMin= 7 EnMin= -769.412324265438     IErMin= 7 ErrMin= 2.02D-04
 ErrMax= 2.02D-04  0.00D+00 EMaxC= 1.00D-01 BMatC= 2.01D-05 BMatP= 2.26D-04
 IDIUse=3 WtCom= 9.98D-01 WtEn= 2.02D-03
 Coeff-Com:  0.369D-02 0.244D-01-0.411D-01-0.139D-01-0.131D-01 0.136D+00
 Coeff-Com:  0.904D+00
 Coeff-En:   0.000D+00 0.000D+00 0.000D+00 0.000D+00 0.000D+00 0.000D+00
 Coeff-En:   0.100D+01
 Coeff:      0.369D-02 0.244D-01-0.410D-01-0.138D-01-0.130D-01 0.136D+00
 Coeff:      0.904D+00
 Gap=     0.106 Goal=   None    Shift=    0.000
 Gap=     0.093 Goal=   None    Shift=    0.000
 RMSDP=7.91D-06 MaxDP=4.64D-04 DE=-6.60D-05 OVMax= 2.50D-03

 Cycle   9  Pass 1  IDiag  1:
 RMSU=  7.03D-06    CP:  9.10D-01  2.54D+00  3.00D+00  7.81D-01  8.11D-01
                    CP:  1.04D+00  1.27D+00
 E= -769.412340304070     Delta-E=       -0.000016038631 Rises=F Damp=F
 DIIS: error= 1.88D-04 at cycle   8 NSaved=   8.
 NSaved= 8 IEnMin= 8 EnMin= -769.412340304070     IErMin= 8 ErrMin= 1.88D-04
 ErrMax= 1.88D-04  0.00D+00 EMaxC= 1.00D-01 BMatC= 1.81D-05 BMatP= 2.01D-05
 IDIUse=3 WtCom= 9.98D-01 WtEn= 1.88D-03
 Coeff-Com:  0.145D-02 0.488D-01-0.684D-01-0.679D-01-0.158D+00-0.115D+00
 Coeff-Com:  0.718D+00 0.641D+00
 Coeff-En:   0.000D+00 0.000D+00 0.000D+00 0.000D+00 0.000D+00 0.000D+00
 Coeff-En:   0.000D+00 0.100D+01
 Coeff:      0.145D-02 0.487D-01-0.683D-01-0.678D-01-0.157D+00-0.115D+00
 Coeff:      0.717D+00 0.641D+00
 Gap=     0.106 Goal=   None    Shift=    0.000
 Gap=     0.093 Goal=   None    Shift=    0.000
 RMSDP=6.09D-06 MaxDP=3.64D-04 DE=-1.60D-05 OVMax= 2.25D-03

 Cycle  10  Pass 1  IDiag  1:
 RMSU=  3.80D-06    CP:  9.10D-01  2.54D+00  3.00D+00  7.83D-01  8.18D-01
                    CP:  1.12D+00  1.64D+00  1.29D+00
 E= -769.412351663922     Delta-E=       -0.000011359853 Rises=F Damp=F
 DIIS: error= 4.11D-05 at cycle   9 NSaved=   9.
 NSaved= 9 IEnMin= 9 EnMin= -769.412351663922     IErMin= 9 ErrMin= 4.11D-05
 ErrMax= 4.11D-05  0.00D+00 EMaxC= 1.00D-01 BMatC= 1.85D-06 BMatP= 1.81D-05
 IDIUse=1 WtCom= 1.00D+00 WtEn= 0.00D+00
 Coeff-Com: -0.152D-02 0.117D-01-0.122D-01-0.217D-01-0.569D-01-0.936D-01
 Coeff-Com: -0.761D-01 0.222D+00 0.103D+01
 Coeff:     -0.152D-02 0.117D-01-0.122D-01-0.217D-01-0.569D-01-0.936D-01
 Coeff:     -0.761D-01 0.222D+00 0.103D+01
 Gap=     0.106 Goal=   None    Shift=    0.000
 Gap=     0.093 Goal=   None    Shift=    0.000
 RMSDP=4.26D-06 MaxDP=2.41D-04 DE=-1.14D-05 OVMax= 1.35D-03

 Cycle  11  Pass 1  IDiag  1:
 RMSU=  1.53D-06    CP:  9.10D-01  2.54D+00  3.00D+00  7.84D-01  8.22D-01
                    CP:  1.20D+00  1.88D+00  1.64D+00  1.27D+00
 E= -769.412354073504     Delta-E=       -0.000002409582 Rises=F Damp=F
 DIIS: error= 1.76D-05 at cycle  10 NSaved=  10.
 NSaved=10 IEnMin=10 EnMin= -769.412354073504     IErMin=10 ErrMin= 1.76D-05
 ErrMax= 1.76D-05  0.00D+00 EMaxC= 1.00D-01 BMatC= 2.59D-07 BMatP= 1.85D-06
 IDIUse=1 WtCom= 1.00D+00 WtEn= 0.00D+00
 Coeff-Com: -0.653D-03-0.640D-04 0.153D-02-0.160D-02-0.688D-02-0.231D-01
 Coeff-Com: -0.102D+00 0.293D-01 0.395D+00 0.708D+00
 Coeff:     -0.653D-03-0.640D-04 0.153D-02-0.160D-02-0.688D-02-0.231D-01
 Coeff:     -0.102D+00 0.293D-01 0.395D+00 0.708D+00
 Gap=     0.106 Goal=   None    Shift=    0.000
 Gap=     0.093 Goal=   None    Shift=    0.000
 RMSDP=7.69D-07 MaxDP=5.55D-05 DE=-2.41D-06 OVMax= 2.23D-04

 Cycle  12  Pass 1  IDiag  1:
 RMSU=  4.68D-07    CP:  9.10D-01  2.54D+00  3.00D+00  7.84D-01  8.22D-01
                    CP:  1.20D+00  1.91D+00  1.69D+00  1.35D+00  1.06D+00
 E= -769.412354188372     Delta-E=       -0.000000114868 Rises=F Damp=F
 DIIS: error= 7.69D-06 at cycle  11 NSaved=  11.
 NSaved=11 IEnMin=11 EnMin= -769.412354188372     IErMin=11 ErrMin= 7.69D-06
 ErrMax= 7.69D-06  0.00D+00 EMaxC= 1.00D-01 BMatC= 8.79D-08 BMatP= 2.59D-07
 IDIUse=1 WtCom= 1.00D+00 WtEn= 0.00D+00
 Coeff-Com:  0.189D-04-0.252D-02 0.333D-02 0.400D-02 0.874D-02 0.101D-01
 Coeff-Com: -0.344D-01-0.319D-01-0.392D-01 0.384D+00 0.698D+00
 Coeff:      0.189D-04-0.252D-02 0.333D-02 0.400D-02 0.874D-02 0.101D-01
 Coeff:     -0.344D-01-0.319D-01-0.392D-01 0.384D+00 0.698D+00
 Gap=     0.106 Goal=   None    Shift=    0.000
 Gap=     0.093 Goal=   None    Shift=    0.000
 RMSDP=3.81D-07 MaxDP=2.19D-05 DE=-1.15D-07 OVMax= 1.09D-04

 Cycle  13  Pass 1  IDiag  1:
 RMSU=  2.64D-07    CP:  9.10D-01  2.54D+00  3.00D+00  7.84D-01  8.22D-01
                    CP:  1.20D+00  1.92D+00  1.72D+00  1.37D+00  1.15D+00
                    CP:  1.04D+00
 E= -769.412354219921     Delta-E=       -0.000000031549 Rises=F Damp=F
 DIIS: error= 7.07D-06 at cycle  12 NSaved=  12.
 NSaved=12 IEnMin=12 EnMin= -769.412354219921     IErMin=12 ErrMin= 7.07D-06
 ErrMax= 7.07D-06  0.00D+00 EMaxC= 1.00D-01 BMatC= 1.64D-08 BMatP= 8.79D-08
 IDIUse=1 WtCom= 1.00D+00 WtEn= 0.00D+00
 Coeff-Com:  0.117D-03-0.142D-02 0.164D-02 0.240D-02 0.572D-02 0.895D-02
 Coeff-Com: -0.266D-02-0.218D-01-0.817D-01 0.917D-01 0.364D+00 0.633D+00
 Coeff:      0.117D-03-0.142D-02 0.164D-02 0.240D-02 0.572D-02 0.895D-02
 Coeff:     -0.266D-02-0.218D-01-0.817D-01 0.917D-01 0.364D+00 0.633D+00
 Gap=     0.106 Goal=   None    Shift=    0.000
 Gap=     0.093 Goal=   None    Shift=    0.000
 RMSDP=1.74D-07 MaxDP=1.05D-05 DE=-3.15D-08 OVMax= 9.84D-05

 Cycle  14  Pass 1  IDiag  1:
 RMSU=  1.46D-07    CP:  9.10D-01  2.54D+00  3.00D+00  7.84D-01  8.22D-01
                    CP:  1.20D+00  1.92D+00  1.72D+00  1.38D+00  1.17D+00
                    CP:  1.20D+00  9.45D-01
 E= -769.412354222823     Delta-E=       -0.000000002902 Rises=F Damp=F
 DIIS: error= 7.09D-06 at cycle  13 NSaved=  13.
 NSaved=13 IEnMin=13 EnMin= -769.412354222823     IErMin=12 ErrMin= 7.07D-06
 ErrMax= 7.09D-06  0.00D+00 EMaxC= 1.00D-01 BMatC= 1.29D-08 BMatP= 1.64D-08
 IDIUse=1 WtCom= 1.00D+00 WtEn= 0.00D+00
 Coeff-Com:  0.914D-04-0.339D-03 0.254D-03 0.624D-03 0.177D-02 0.386D-02
 Coeff-Com:  0.997D-02-0.739D-02-0.537D-01-0.599D-01 0.563D-01 0.539D+00
 Coeff-Com:  0.510D+00
 Coeff:      0.914D-04-0.339D-03 0.254D-03 0.624D-03 0.177D-02 0.386D-02
 Coeff:      0.997D-02-0.739D-02-0.537D-01-0.599D-01 0.563D-01 0.539D+00
 Coeff:      0.510D+00
 Gap=     0.106 Goal=   None    Shift=    0.000
 Gap=     0.093 Goal=   None    Shift=    0.000
 RMSDP=9.97D-08 MaxDP=5.08D-06 DE=-2.90D-09 OVMax= 5.47D-05

 Cycle  15  Pass 1  IDiag  1:
 RMSU=  5.97D-08    CP:  9.10D-01  2.54D+00  3.00D+00  7.84D-01  8.22D-01
                    CP:  1.20D+00  1.93D+00  1.72D+00  1.38D+00  1.19D+00
                    CP:  1.24D+00  1.16D+00  7.32D-01
 E= -769.412354227234     Delta-E=       -0.000000004411 Rises=F Damp=F
 DIIS: error= 9.00D-07 at cycle  14 NSaved=  14.
 NSaved=14 IEnMin=14 EnMin= -769.412354227234     IErMin=14 ErrMin= 9.00D-07
 ErrMax= 9.00D-07  0.00D+00 EMaxC= 1.00D-01 BMatC= 6.27D-10 BMatP= 1.29D-08
 IDIUse=1 WtCom= 1.00D+00 WtEn= 0.00D+00
 Coeff-Com:  0.255D-04 0.278D-04-0.943D-04-0.133D-04 0.128D-03 0.636D-03
 Coeff-Com:  0.544D-02-0.965D-03-0.151D-01-0.415D-01-0.204D-01 0.186D+00
 Coeff-Com:  0.253D+00 0.633D+00
 Coeff:      0.255D-04 0.278D-04-0.943D-04-0.133D-04 0.128D-03 0.636D-03
 Coeff:      0.544D-02-0.965D-03-0.151D-01-0.415D-01-0.204D-01 0.186D+00
 Coeff:      0.253D+00 0.633D+00
 Gap=     0.106 Goal=   None    Shift=    0.000
 Gap=     0.093 Goal=   None    Shift=    0.000
 RMSDP=2.64D-08 MaxDP=1.91D-06 DE=-4.41D-09 OVMax= 7.35D-06

 Cycle  16  Pass 1  IDiag  1:
 RMSU=  2.05D-08    CP:  9.10D-01  2.54D+00  3.00D+00  7.84D-01  8.22D-01
                    CP:  1.20D+00  1.93D+00  1.72D+00  1.38D+00  1.19D+00
                    CP:  1.26D+00  1.19D+00  7.97D-01  9.20D-01
 E= -769.412354227382     Delta-E=       -0.000000000148 Rises=F Damp=F
 DIIS: error= 2.96D-07 at cycle  15 NSaved=  15.
 NSaved=15 IEnMin=15 EnMin= -769.412354227382     IErMin=15 ErrMin= 2.96D-07
 ErrMax= 2.96D-07  0.00D+00 EMaxC= 1.00D-01 BMatC= 1.30D-10 BMatP= 6.27D-10
 IDIUse=1 WtCom= 1.00D+00 WtEn= 0.00D+00
 Coeff-Com: -0.286D-05 0.761D-04-0.968D-04-0.111D-03-0.217D-03-0.335D-03
 Coeff-Com:  0.129D-02 0.669D-03 0.823D-03-0.127D-01-0.216D-01 0.882D-02
 Coeff-Com:  0.512D-01 0.353D+00 0.619D+00
 Coeff:     -0.286D-05 0.761D-04-0.968D-04-0.111D-03-0.217D-03-0.335D-03
 Coeff:      0.129D-02 0.669D-03 0.823D-03-0.127D-01-0.216D-01 0.882D-02
 Coeff:      0.512D-01 0.353D+00 0.619D+00
 Gap=     0.106 Goal=   None    Shift=    0.000
 Gap=     0.093 Goal=   None    Shift=    0.000
 RMSDP=1.14D-08 MaxDP=8.52D-07 DE=-1.48D-10 OVMax= 2.68D-06

 Cycle  17  Pass 1  IDiag  1:
 RMSU=  9.79D-09    CP:  9.10D-01  2.54D+00  3.00D+00  7.84D-01  8.22D-01
                    CP:  1.20D+00  1.93D+00  1.72D+00  1.38D+00  1.19D+00
                    CP:  1.26D+00  1.20D+00  8.05D-01  9.60D-01  1.02D+00
 E= -769.412354227446     Delta-E=       -0.000000000064 Rises=F Damp=F
 DIIS: error= 9.32D-08 at cycle  16 NSaved=  16.
 NSaved=16 IEnMin=16 EnMin= -769.412354227446     IErMin=16 ErrMin= 9.32D-08
 ErrMax= 9.32D-08  0.00D+00 EMaxC= 1.00D-01 BMatC= 1.08D-11 BMatP= 1.30D-10
 IDIUse=1 WtCom= 1.00D+00 WtEn= 0.00D+00
 Coeff-Com: -0.406D-05 0.271D-04-0.277D-04-0.378D-04-0.934D-04-0.200D-03
 Coeff-Com: -0.194D-03 0.400D-03 0.197D-02 0.447D-03-0.548D-02-0.184D-01
 Coeff-Com: -0.118D-01 0.476D-01 0.229D+00 0.757D+00
 Coeff:     -0.406D-05 0.271D-04-0.277D-04-0.378D-04-0.934D-04-0.200D-03
 Coeff:     -0.194D-03 0.400D-03 0.197D-02 0.447D-03-0.548D-02-0.184D-01
 Coeff:     -0.118D-01 0.476D-01 0.229D+00 0.757D+00
 Gap=     0.106 Goal=   None    Shift=    0.000
 Gap=     0.093 Goal=   None    Shift=    0.000
 RMSDP=4.89D-09 MaxDP=2.94D-07 DE=-6.37D-11 OVMax= 1.25D-06

 SCF Done:  E(UB3LYP) =  -769.412354227     A.U. after   17 cycles
            NFock= 17  Conv=0.49D-08     -V/T= 2.0059
 <Sx>= 0.0000 <Sy>= 0.0000 <Sz>= 0.5000 <S**2>= 0.7720 S= 0.5109
 <L.S>=  0.00000000000    
 KE= 7.649108015252D+02 PE=-4.507522582399D+03 EE= 1.602045866790D+03
 Annihilation of the first spin contaminant:
 S**2 before annihilation     0.7720,   after     0.7504
 Leave Link  502 at Tue May  7 11:19:19 2024, MaxMem=120795955200 cpu:           13503.6 elap:             106.3
 (Enter /apps/gaussian/g16-c01-avx2/g16/l601.exe)
 Copying SCF densities to generalized density rwf, IOpCl= 1 IROHF=0.

 **********************************************************************

            Population analysis using the SCF Density.

 **********************************************************************

 Orbital symmetries:
 Alpha Orbitals:
       Occupied  (A) (A) (A) (A) (A) (A) (A) (A) (A) (A) (A) (A)
                 (A) (A) (A) (A) (A) (A) (A) (A) (A) (A) (A) (A)
                 (A) (A) (A) (A) (A) (A) (A) (A) (A) (A) (A) (A)
                 (A) (A) (A) (A) (A) (A) (A) (A) (A) (A) (A) (A)
                 (A) (A) (A) (A) (A) (A) (A) (A) (A) (A) (A) (A)
                 (A) (A) (A) (A) (A) (A)
       Virtual   (A) (A) (A) (A) (A) (A) (A) (A) (A) (A) (A) (A)
                 (A) (A) (A) (A) (A) (A) (A) (A) (A) (A) (A) (A)
                 (A) (A) (A) (A) (A) (A) (A) (A) (A) (A) (A) (A)
                 (A) (A) (A) (A) (A) (A) (A) (A) (A) (A) (A) (A)
                 (A) (A) (A) (A) (A) (A) (A) (A) (A) (A) (A) (A)
                 (A) (A) (A) (A) (A) (A) (A) (A) (A) (A) (A) (A)
                 (A) (A) (A) (A) (A) (A) (A) (A) (A) (A) (A) (A)
                 (A) (A) (A) (A) (A) (A) (A) (A) (A) (A) (A) (A)
                 (A) (A) (A) (A) (A) (A) (A) (A) (A) (A) (A) (A)
                 (A) (A) (A) (A) (A) (A) (A) (A) (A) (A) (A) (A)
                 (A) (A) (A) (A) (A) (A) (A) (A) (A) (A) (A) (A)
                 (A) (A) (A) (A) (A) (A) (A) (A) (A) (A) (A) (A)
                 (A) (A) (A) (A) (A) (A) (A) (A) (A) (A) (A) (A)
                 (A) (A) (A) (A) (A) (A) (A) (A) (A) (A) (A) (A)
                 (A) (A) (A) (A) (A) (A) (A) (A) (A) (A) (A) (A)
                 (A) (A) (A) (A) (A) (A) (A) (A) (A) (A) (A) (A)
                 (A) (A) (A) (A) (A) (A) (A) (A) (A) (A) (A) (A)
                 (A) (A) (A) (A) (A) (A) (A) (A) (A) (A) (A) (A)
                 (A) (A) (A) (A) (A) (A) (A) (A) (A) (A) (A) (A)
                 (A) (A) (A) (A) (A) (A) (A) (A) (A) (A) (A) (A)
                 (A) (A) (A) (A) (A) (A) (A) (A) (A) (A) (A) (A)
                 (A) (A) (A) (A) (A) (A) (A) (A) (A) (A) (A) (A)
                 (A) (A) (A) (A) (A) (A) (A) (A) (A) (A) (A) (A)
                 (A) (A) (A) (A) (A) (A) (A) (A) (A) (A) (A) (A)
                 (A) (A) (A) (A) (A) (A) (A) (A) (A) (A) (A) (A)
                 (A) (A) (A) (A) (A) (A) (A) (A) (A) (A) (A) (A)
                 (A) (A) (A) (A) (A) (A) (A) (A) (A) (A) (A) (A)
                 (A) (A) (A) (A) (A) (A) (A) (A) (A) (A) (A) (A)
                 (A) (A) (A) (A) (A) (A) (A) (A) (A) (A) (A) (A)
                 (A) (A) (A) (A) (A) (A) (A) (A) (A) (A) (A) (A)
                 (A) (A) (A) (A) (A) (A) (A) (A) (A) (A) (A) (A)
                 (A) (A) (A) (A) (A) (A) (A) (A) (A) (A) (A) (A)
                 (A) (A) (A) (A) (A) (A) (A) (A) (A) (A) (A) (A)
                 (A) (A) (A) (A) (A) (A) (A) (A) (A) (A) (A) (A)
                 (A) (A) (A) (A) (A) (A) (A) (A) (A) (A) (A) (A)
                 (A) (A) (A) (A) (A) (A) (A) (A) (A) (A) (A) (A)
                 (A) (A) (A) (A) (A) (A) (A) (A) (A) (A) (A) (A)
                 (A) (A) (A) (A) (A) (A) (A) (A) (A) (A) (A) (A)
                 (A) (A) (A) (A) (A) (A) (A) (A) (A) (A) (A) (A)
                 (A) (A) (A) (A) (A) (A) (A) (A) (A) (A) (A) (A)
                 (A) (A) (A) (A) (A) (A) (A) (A) (A) (A) (A) (A)
                 (A) (A) (A) (A) (A) (A) (A) (A) (A) (A) (A) (A)
                 (A) (A) (A) (A) (A) (A) (A) (A) (A) (A) (A) (A)
                 (A) (A) (A) (A) (A) (A) (A) (A) (A) (A) (A) (A)
                 (A) (A) (A) (A) (A) (A) (A) (A) (A) (A) (A) (A)
                 (A) (A) (A) (A) (A) (A) (A) (A) (A) (A) (A) (A)
                 (A) (A) (A) (A) (A) (A) (A) (A) (A) (A) (A) (A)
                 (A) (A) (A) (A) (A) (A) (A) (A) (A) (A) (A) (A)
                 (A) (A) (A) (A) (A) (A) (A) (A) (A) (A) (A) (A)
                 (A) (A) (A) (A) (A) (A) (A) (A) (A) (A) (A) (A)
                 (A) (A) (A) (A) (A) (A) (A) (A) (A) (A) (A) (A)
                 (A) (A) (A) (A) (A) (A) (A) (A) (A) (A) (A) (A)
                 (A) (A)
 Beta  Orbitals:
       Occupied  (A) (A) (A) (A) (A) (A) (A) (A) (A) (A) (A) (A)
                 (A) (A) (A) (A) (A) (A) (A) (A) (A) (A) (A) (A)
                 (A) (A) (A) (A) (A) (A) (A) (A) (A) (A) (A) (A)
                 (A) (A) (A) (A) (A) (A) (A) (A) (A) (A) (A) (A)
                 (A) (A) (A) (A) (A) (A) (A) (A) (A) (A) (A) (A)
                 (A) (A) (A) (A) (A)
       Virtual   (A) (A) (A) (A) (A) (A) (A) (A) (A) (A) (A) (A)
                 (A) (A) (A) (A) (A) (A) (A) (A) (A) (A) (A) (A)
                 (A) (A) (A) (A) (A) (A) (A) (A) (A) (A) (A) (A)
                 (A) (A) (A) (A) (A) (A) (A) (A) (A) (A) (A) (A)
                 (A) (A) (A) (A) (A) (A) (A) (A) (A) (A) (A) (A)
                 (A) (A) (A) (A) (A) (A) (A) (A) (A) (A) (A) (A)
                 (A) (A) (A) (A) (A) (A) (A) (A) (A) (A) (A) (A)
                 (A) (A) (A) (A) (A) (A) (A) (A) (A) (A) (A) (A)
                 (A) (A) (A) (A) (A) (A) (A) (A) (A) (A) (A) (A)
                 (A) (A) (A) (A) (A) (A) (A) (A) (A) (A) (A) (A)
                 (A) (A) (A) (A) (A) (A) (A) (A) (A) (A) (A) (A)
                 (A) (A) (A) (A) (A) (A) (A) (A) (A) (A) (A) (A)
                 (A) (A) (A) (A) (A) (A) (A) (A) (A) (A) (A) (A)
                 (A) (A) (A) (A) (A) (A) (A) (A) (A) (A) (A) (A)
                 (A) (A) (A) (A) (A) (A) (A) (A) (A) (A) (A) (A)
                 (A) (A) (A) (A) (A) (A) (A) (A) (A) (A) (A) (A)
                 (A) (A) (A) (A) (A) (A) (A) (A) (A) (A) (A) (A)
                 (A) (A) (A) (A) (A) (A) (A) (A) (A) (A) (A) (A)
                 (A) (A) (A) (A) (A) (A) (A) (A) (A) (A) (A) (A)
                 (A) (A) (A) (A) (A) (A) (A) (A) (A) (A) (A) (A)
                 (A) (A) (A) (A) (A) (A) (A) (A) (A) (A) (A) (A)
                 (A) (A) (A) (A) (A) (A) (A) (A) (A) (A) (A) (A)
                 (A) (A) (A) (A) (A) (A) (A) (A) (A) (A) (A) (A)
                 (A) (A) (A) (A) (A) (A) (A) (A) (A) (A) (A) (A)
                 (A) (A) (A) (A) (A) (A) (A) (A) (A) (A) (A) (A)
                 (A) (A) (A) (A) (A) (A) (A) (A) (A) (A) (A) (A)
                 (A) (A) (A) (A) (A) (A) (A) (A) (A) (A) (A) (A)
                 (A) (A) (A) (A) (A) (A) (A) (A) (A) (A) (A) (A)
                 (A) (A) (A) (A) (A) (A) (A) (A) (A) (A) (A) (A)
                 (A) (A) (A) (A) (A) (A) (A) (A) (A) (A) (A) (A)
                 (A) (A) (A) (A) (A) (A) (A) (A) (A) (A) (A) (A)
                 (A) (A) (A) (A) (A) (A) (A) (A) (A) (A) (A) (A)
                 (A) (A) (A) (A) (A) (A) (A) (A) (A) (A) (A) (A)
                 (A) (A) (A) (A) (A) (A) (A) (A) (A) (A) (A) (A)
                 (A) (A) (A) (A) (A) (A) (A) (A) (A) (A) (A) (A)
                 (A) (A) (A) (A) (A) (A) (A) (A) (A) (A) (A) (A)
                 (A) (A) (A) (A) (A) (A) (A) (A) (A) (A) (A) (A)
                 (A) (A) (A) (A) (A) (A) (A) (A) (A) (A) (A) (A)
                 (A) (A) (A) (A) (A) (A) (A) (A) (A) (A) (A) (A)
                 (A) (A) (A) (A) (A) (A) (A) (A) (A) (A) (A) (A)
                 (A) (A) (A) (A) (A) (A) (A) (A) (A) (A) (A) (A)
                 (A) (A) (A) (A) (A) (A) (A) (A) (A) (A) (A) (A)
                 (A) (A) (A) (A) (A) (A) (A) (A) (A) (A) (A) (A)
                 (A) (A) (A) (A) (A) (A) (A) (A) (A) (A) (A) (A)
                 (A) (A) (A) (A) (A) (A) (A) (A) (A) (A) (A) (A)
                 (A) (A) (A) (A) (A) (A) (A) (A) (A) (A) (A) (A)
                 (A) (A) (A) (A) (A) (A) (A) (A) (A) (A) (A) (A)
                 (A) (A) (A) (A) (A) (A) (A) (A) (A) (A) (A) (A)
                 (A) (A) (A) (A) (A) (A) (A) (A) (A) (A) (A) (A)
                 (A) (A) (A) (A) (A) (A) (A) (A) (A) (A) (A) (A)
                 (A) (A) (A) (A) (A) (A) (A) (A) (A) (A) (A) (A)
                 (A) (A) (A) (A) (A) (A) (A) (A) (A) (A) (A) (A)
                 (A) (A) (A)
 The electronic state is 2-A.
 Alpha  occ. eigenvalues --  -10.34466 -10.34462 -10.34418 -10.34343 -10.33970
 Alpha  occ. eigenvalues --  -10.33938 -10.33927 -10.33907 -10.33437 -10.33391
 Alpha  occ. eigenvalues --  -10.33372 -10.33361 -10.33343 -10.33343 -10.33288
 Alpha  occ. eigenvalues --  -10.33275 -10.32562 -10.32499 -10.32479 -10.32471
 Alpha  occ. eigenvalues --   -1.05069  -1.01759  -0.99383  -0.96316  -0.96125
 Alpha  occ. eigenvalues --   -0.90695  -0.90184  -0.89485  -0.88418  -0.84415
 Alpha  occ. eigenvalues --   -0.79508  -0.78871  -0.77869  -0.75446  -0.74172
 Alpha  occ. eigenvalues --   -0.69343  -0.68953  -0.68013  -0.65712  -0.63794
 Alpha  occ. eigenvalues --   -0.62667  -0.61631  -0.61244  -0.59829  -0.58543
 Alpha  occ. eigenvalues --   -0.57187  -0.57071  -0.56638  -0.56255  -0.55665
 Alpha  occ. eigenvalues --   -0.53329  -0.53056  -0.52903  -0.51741  -0.50745
 Alpha  occ. eigenvalues --   -0.50510  -0.50191  -0.47240  -0.47131  -0.47003
 Alpha  occ. eigenvalues --   -0.46852  -0.41126  -0.40602  -0.40340  -0.39543
 Alpha  occ. eigenvalues --   -0.34323
 Alpha virt. eigenvalues --   -0.23675  -0.18152  -0.16918  -0.15546  -0.15525
 Alpha virt. eigenvalues --   -0.08546  -0.08465  -0.08104  -0.06823  -0.06099
 Alpha virt. eigenvalues --   -0.04794  -0.04357  -0.03223  -0.02881  -0.02459
 Alpha virt. eigenvalues --   -0.02365  -0.01209  -0.01137   0.00350   0.00636
 Alpha virt. eigenvalues --    0.00987   0.01512   0.03520   0.03921   0.04060
 Alpha virt. eigenvalues --    0.05157   0.05706   0.06652   0.06795   0.07090
 Alpha virt. eigenvalues --    0.07475   0.07993   0.08492   0.09257   0.09404
 Alpha virt. eigenvalues --    0.09705   0.10096   0.10240   0.10263   0.11033
 Alpha virt. eigenvalues --    0.11257   0.11392   0.12125   0.12197   0.12939
 Alpha virt. eigenvalues --    0.13331   0.14002   0.14474   0.14546   0.15402
 Alpha virt. eigenvalues --    0.15712   0.15724   0.16595   0.17211   0.19005
 Alpha virt. eigenvalues --    0.19833   0.19986   0.20336   0.20776   0.20840
 Alpha virt. eigenvalues --    0.21668   0.21840   0.22795   0.22879   0.23144
 Alpha virt. eigenvalues --    0.23874   0.23999   0.24503   0.24569   0.26062
 Alpha virt. eigenvalues --    0.26253   0.26863   0.27028   0.27106   0.27781
 Alpha virt. eigenvalues --    0.27987   0.28466   0.29751   0.30398   0.31255
 Alpha virt. eigenvalues --    0.31696   0.32033   0.32158   0.32289   0.33200
 Alpha virt. eigenvalues --    0.34195   0.34879   0.34956   0.35546   0.35633
 Alpha virt. eigenvalues --    0.36093   0.36483   0.37676   0.38852   0.39202
 Alpha virt. eigenvalues --    0.39880   0.40034   0.41134   0.41275   0.42261
 Alpha virt. eigenvalues --    0.42989   0.43297   0.44181   0.46634   0.47187
 Alpha virt. eigenvalues --    0.48116   0.48312   0.48498   0.48855   0.48931
 Alpha virt. eigenvalues --    0.49240   0.50847   0.51344   0.51943   0.52249
 Alpha virt. eigenvalues --    0.52498   0.52959   0.53290   0.54382   0.54511
 Alpha virt. eigenvalues --    0.56100   0.56336   0.56709   0.56790   0.57098
 Alpha virt. eigenvalues --    0.59177   0.59268   0.59378   0.59501   0.59760
 Alpha virt. eigenvalues --    0.59786   0.60887   0.61937   0.61939   0.63381
 Alpha virt. eigenvalues --    0.63808   0.64541   0.64998   0.66099   0.66284
 Alpha virt. eigenvalues --    0.66474   0.67207   0.68374   0.68618   0.69628
 Alpha virt. eigenvalues --    0.70076   0.70692   0.71518   0.73051   0.73434
 Alpha virt. eigenvalues --    0.73707   0.74577   0.74788   0.75053   0.75442
 Alpha virt. eigenvalues --    0.76681   0.77053   0.78006   0.79441   0.80314
 Alpha virt. eigenvalues --    0.82723   0.82930   0.83310   0.84700   0.84776
 Alpha virt. eigenvalues --    0.85103   0.85686   0.88303   0.89654   0.89663
 Alpha virt. eigenvalues --    0.91674   0.92313   0.93475   0.94250   0.96130
 Alpha virt. eigenvalues --    0.96194   0.96387   0.98303   1.00165   1.00698
 Alpha virt. eigenvalues --    1.01073   1.01412   1.03334   1.03728   1.04221
 Alpha virt. eigenvalues --    1.05199   1.05307   1.05788   1.06613   1.06977
 Alpha virt. eigenvalues --    1.07377   1.10026   1.11350   1.11426   1.11843
 Alpha virt. eigenvalues --    1.13115   1.13448   1.14366   1.15043   1.15135
 Alpha virt. eigenvalues --    1.15255   1.16647   1.16743   1.17913   1.18042
 Alpha virt. eigenvalues --    1.18989   1.22077   1.22973   1.23421   1.23485
 Alpha virt. eigenvalues --    1.24860   1.25085   1.26121   1.26644   1.27918
 Alpha virt. eigenvalues --    1.29162   1.29352   1.29558   1.29830   1.30375
 Alpha virt. eigenvalues --    1.32204   1.32347   1.33138   1.33695   1.35763
 Alpha virt. eigenvalues --    1.36343   1.36539   1.36857   1.37882   1.37963
 Alpha virt. eigenvalues --    1.39601   1.40235   1.40548   1.41410   1.44304
 Alpha virt. eigenvalues --    1.44667   1.44757   1.45980   1.46551   1.46663
 Alpha virt. eigenvalues --    1.49110   1.50395   1.51031   1.51331   1.51595
 Alpha virt. eigenvalues --    1.51751   1.52260   1.53044   1.53262   1.53475
 Alpha virt. eigenvalues --    1.55037   1.55465   1.55607   1.56016   1.56336
 Alpha virt. eigenvalues --    1.58169   1.59110   1.59521   1.59659   1.62784
 Alpha virt. eigenvalues --    1.62936   1.64909   1.64952   1.65978   1.67609
 Alpha virt. eigenvalues --    1.69249   1.69667   1.72599   1.73217   1.75296
 Alpha virt. eigenvalues --    1.76874   1.77231   1.79165   1.79250   1.79947
 Alpha virt. eigenvalues --    1.81070   1.82111   1.83825   1.84149   1.86012
 Alpha virt. eigenvalues --    1.86738   1.90251   1.90976   1.92659   1.93500
 Alpha virt. eigenvalues --    1.95113   1.95633   1.96997   1.97351   1.97425
 Alpha virt. eigenvalues --    1.98669   2.00206   2.03582   2.04204   2.04469
 Alpha virt. eigenvalues --    2.05082   2.05410   2.06205   2.06604   2.06744
 Alpha virt. eigenvalues --    2.07633   2.08096   2.08863   2.09691   2.10006
 Alpha virt. eigenvalues --    2.10723   2.11774   2.13412   2.13629   2.14724
 Alpha virt. eigenvalues --    2.17066   2.17226   2.22115   2.24271   2.25765
 Alpha virt. eigenvalues --    2.26407   2.26685   2.27302   2.28566   2.30529
 Alpha virt. eigenvalues --    2.30738   2.33706   2.33808   2.35854   2.37826
 Alpha virt. eigenvalues --    2.39134   2.40548   2.41001   2.41368   2.41506
 Alpha virt. eigenvalues --    2.42362   2.43423   2.43895   2.46230   2.46617
 Alpha virt. eigenvalues --    2.46660   2.47446   2.48026   2.49479   2.50503
 Alpha virt. eigenvalues --    2.50927   2.50980   2.51831   2.53066   2.54159
 Alpha virt. eigenvalues --    2.54231   2.54740   2.55210   2.55867   2.56533
 Alpha virt. eigenvalues --    2.58561   2.58638   2.58798   2.59739   2.61887
 Alpha virt. eigenvalues --    2.62123   2.62707   2.62791   2.63110   2.65383
 Alpha virt. eigenvalues --    2.66551   2.67109   2.67548   2.67673   2.68513
 Alpha virt. eigenvalues --    2.68949   2.69402   2.69533   2.69792   2.71555
 Alpha virt. eigenvalues --    2.72425   2.72943   2.73169   2.74295   2.74744
 Alpha virt. eigenvalues --    2.75650   2.76037   2.76221   2.76361   2.78407
 Alpha virt. eigenvalues --    2.78591   2.78928   2.79821   2.81244   2.81284
 Alpha virt. eigenvalues --    2.81510   2.82130   2.82959   2.83347   2.84304
 Alpha virt. eigenvalues --    2.85228   2.85538   2.87019   2.87432   2.87780
 Alpha virt. eigenvalues --    2.88903   2.89770   2.91353   2.91456   2.91626
 Alpha virt. eigenvalues --    2.92167   2.93102   2.93696   2.95152   2.96301
 Alpha virt. eigenvalues --    2.96986   2.98154   2.98509   2.98900   2.99276
 Alpha virt. eigenvalues --    2.99688   3.00381   3.00697   3.01973   3.02538
 Alpha virt. eigenvalues --    3.04688   3.04804   3.05535   3.06886   3.07585
 Alpha virt. eigenvalues --    3.07885   3.08488   3.08766   3.09071   3.09307
 Alpha virt. eigenvalues --    3.10888   3.11001   3.11169   3.11203   3.12550
 Alpha virt. eigenvalues --    3.12749   3.13658   3.14602   3.15284   3.15338
 Alpha virt. eigenvalues --    3.16626   3.17844   3.18813   3.18886   3.20023
 Alpha virt. eigenvalues --    3.20578   3.21254   3.21360   3.22722   3.23196
 Alpha virt. eigenvalues --    3.25583   3.26049   3.27020   3.27585   3.28120
 Alpha virt. eigenvalues --    3.28724   3.29346   3.29737   3.31171   3.33208
 Alpha virt. eigenvalues --    3.33629   3.33849   3.34539   3.35494   3.35947
 Alpha virt. eigenvalues --    3.36871   3.36945   3.38295   3.38720   3.38861
 Alpha virt. eigenvalues --    3.38949   3.39770   3.40100   3.40614   3.42213
 Alpha virt. eigenvalues --    3.42534   3.42910   3.44574   3.45116   3.46496
 Alpha virt. eigenvalues --    3.47664   3.48560   3.48613   3.50897   3.51984
 Alpha virt. eigenvalues --    3.53548   3.53555   3.54017   3.55263   3.55415
 Alpha virt. eigenvalues --    3.56963   3.57760   3.59400   3.61808   3.65227
 Alpha virt. eigenvalues --    3.65586   3.67359   3.67925   3.69468   3.70007
 Alpha virt. eigenvalues --    3.70358   3.72092   3.72342   3.72633   3.74287
 Alpha virt. eigenvalues --    3.75427   3.77974   3.79053   3.79764   3.80529
 Alpha virt. eigenvalues --    3.83009   3.84450   3.86141   3.87984   3.88218
 Alpha virt. eigenvalues --    3.88391   3.89038   3.91095   3.92193   3.92644
 Alpha virt. eigenvalues --    3.95564   3.96651   3.97131   3.98333   3.99969
 Alpha virt. eigenvalues --    4.00431   4.02342   4.03477   4.04707   4.04720
 Alpha virt. eigenvalues --    4.05335   4.05467   4.05697   4.06741   4.07210
 Alpha virt. eigenvalues --    4.07343   4.08155   4.10452   4.11855   4.12383
 Alpha virt. eigenvalues --    4.14509   4.15047   4.17748   4.18302   4.21949
 Alpha virt. eigenvalues --    4.22286   4.23029   4.23919   4.25244   4.25517
 Alpha virt. eigenvalues --    4.26953   4.27307   4.29337   4.29967   4.30749
 Alpha virt. eigenvalues --    4.32507   4.35012   4.38795   4.38957   4.40476
 Alpha virt. eigenvalues --    4.42078   4.42158   4.42688   4.49505   4.50178
 Alpha virt. eigenvalues --    4.52994   4.53647   4.56203   4.58814   4.59617
 Alpha virt. eigenvalues --    4.62253   4.62908   4.63279   4.72891   4.73250
 Alpha virt. eigenvalues --    4.74174   4.78950   4.79283   4.81004   4.81220
 Alpha virt. eigenvalues --    4.83211   4.84366   4.85785   4.87286   4.89654
 Alpha virt. eigenvalues --    4.94539   4.94897   4.96128   4.99732   5.00887
 Alpha virt. eigenvalues --    5.05602   5.07992   5.10239   5.12034   5.16711
 Alpha virt. eigenvalues --    5.19718   5.20208   5.22447   5.23959   5.31324
 Alpha virt. eigenvalues --    5.40762   5.42499   5.43093   5.50921   5.51071
 Alpha virt. eigenvalues --    5.57616   5.70992   5.78308   5.79344   5.84991
 Alpha virt. eigenvalues --    6.26539  21.56719  22.37332  22.38951  22.41311
 Alpha virt. eigenvalues --   22.43961  22.45863  22.59164  22.59296  22.59738
 Alpha virt. eigenvalues --   22.63829  22.65557  22.75530  22.77399  22.92379
 Alpha virt. eigenvalues --   23.02346  23.12516  23.12818  23.19557  23.45912
 Alpha virt. eigenvalues --   24.04513
  Beta  occ. eigenvalues --  -10.34415 -10.34411 -10.34365 -10.34290 -10.33766
  Beta  occ. eigenvalues --  -10.33733 -10.33723 -10.33703 -10.33448 -10.33409
  Beta  occ. eigenvalues --  -10.33388 -10.33361 -10.33121 -10.33100 -10.33094
  Beta  occ. eigenvalues --  -10.33090 -10.32625 -10.32561 -10.32542 -10.32534
  Beta  occ. eigenvalues --   -1.04884  -1.01550  -0.99016  -0.95961  -0.95863
  Beta  occ. eigenvalues --   -0.90365  -0.89997  -0.89061  -0.88321  -0.83732
  Beta  occ. eigenvalues --   -0.79183  -0.78770  -0.77679  -0.75315  -0.73923
  Beta  occ. eigenvalues --   -0.69167  -0.68762  -0.67944  -0.65582  -0.63519
  Beta  occ. eigenvalues --   -0.62567  -0.61498  -0.61174  -0.59750  -0.58416
  Beta  occ. eigenvalues --   -0.56993  -0.56685  -0.56496  -0.56152  -0.55554
[...]

 Energy =   -556.2865 cm^-1: |0> -> |20^1>
   -> Intensity =  13.48     (DipStr = 0.1132E-01)

 Energy =   -358.6156 cm^-1: |0> -> |9^1>
   -> Intensity =  22.70     (DipStr = 0.1831E-01)

 Energy =      0.0000 cm^-1: |0> -> |0>
   -> Intensity =  100.8     (DipStr = 0.7575E-01)

     ==================================================
                       Final Spectrum
     ==================================================

 Band broadening simulated by mean of Gaussian functions with
 Half-Widths at Half-Maximum of  100.00 cm^(-1)
 
 Legend:
 -------
 1st col.: Energy (in cm^-1)
 2nd col.: Intensity at T=0K
 Intensity: Emitted intensity (in microJ.mol^-1)
 -----------------------------
    12420.2340    0.333213D-01
    12440.2340    0.349166D-01
    12460.2340    0.369084D-01
    12480.2340    0.392740D-01
    12500.2340    0.419331D-01
    12520.2340    0.447453D-01
    12540.2340    0.475439D-01
    12560.2340    0.501614D-01
    12580.2340    0.524756D-01
    12600.2340    0.544249D-01
    12620.2340    0.560548D-01
    12640.2340    0.575078D-01
    12660.2340    0.590139D-01
    12680.2340    0.608460D-01
    12700.2340    0.632692D-01
    12720.2340    0.664722D-01
    12740.2340    0.705281D-01
    12760.2340    0.753596D-01
    12780.2340    0.807436D-01
    12800.2340    0.863559D-01
    12820.2340    0.917977D-01
    12840.2340    0.967006D-01
    12860.2340    0.100780D+00
    12880.2340    0.103903D+00
    12900.2340    0.106105D+00
    12920.2340    0.107617D+00
    12940.2340    0.108820D+00
    12960.2340    0.110186D+00
    12980.2340    0.112179D+00
    13000.2340    0.115169D+00
    13020.2340    0.119325D+00
    13040.2340    0.124588D+00
    13060.2340    0.130663D+00
    13080.2340    0.137067D+00
    13100.2340    0.143235D+00
    13120.2340    0.148609D+00
    13140.2340    0.152763D+00
    13160.2340    0.155472D+00
    13180.2340    0.156753D+00
    13200.2340    0.156845D+00
    13220.2340    0.156181D+00
    13240.2340    0.155294D+00
    13260.2340    0.154725D+00
    13280.2340    0.154912D+00
    13300.2340    0.156119D+00
    13320.2340    0.158360D+00
    13340.2340    0.161423D+00
    13360.2340    0.164900D+00
    13380.2340    0.168304D+00
    13400.2340    0.171168D+00
    13420.2340    0.173172D+00
    13440.2340    0.174172D+00
    13460.2340    0.174255D+00
    13480.2340    0.173678D+00
    13500.2340    0.172795D+00
    13520.2340    0.171987D+00
    13540.2340    0.171559D+00
    13560.2340    0.171697D+00
    13580.2340    0.172432D+00
    13600.2340    0.173694D+00
    13620.2340    0.175282D+00
    13640.2340    0.177004D+00
    13660.2340    0.178695D+00
    13680.2340    0.180334D+00
    13700.2340    0.182063D+00
    13720.2340    0.184235D+00
    13740.2340    0.187299D+00
    13760.2340    0.191776D+00
    13780.2340    0.198080D+00
    13800.2340    0.206424D+00
    13820.2340    0.216712D+00
    13840.2340    0.228513D+00
    13860.2340    0.241095D+00
    13880.2340    0.253557D+00
    13900.2340    0.265097D+00
    13920.2340    0.275057D+00
    13940.2340    0.283312D+00
    13960.2340    0.290280D+00
    13980.2340    0.296987D+00
    14000.2340    0.304928D+00
    14020.2340    0.315831D+00
    14040.2340    0.331280D+00
    14060.2340    0.352419D+00
    14080.2340    0.379572D+00
    14100.2340    0.412111D+00
    14120.2340    0.448497D+00
    14140.2340    0.486266D+00
    14160.2340    0.522618D+00
    14180.2340    0.554809D+00
    14200.2340    0.580831D+00
    14220.2340    0.599664D+00
    14240.2340    0.611961D+00
    14260.2340    0.619924D+00
    14280.2340    0.627072D+00
    14300.2340    0.637578D+00
    14320.2340    0.655457D+00
    14340.2340    0.683546D+00
    14360.2340    0.722939D+00
    14380.2340    0.772520D+00
    14400.2340    0.829089D+00
    14420.2340    0.887972D+00
    14440.2340    0.943604D+00
    14460.2340    0.990815D+00
    14480.2340    0.102560D+01
    14500.2340    0.104597D+01
    14520.2340    0.105218D+01
    14540.2340    0.104699D+01
    14560.2340    0.103514D+01
    14580.2340    0.102256D+01
    14600.2340    0.101518D+01
    14620.2340    0.101783D+01
    14640.2340    0.103300D+01
    14660.2340    0.106050D+01
    14680.2340    0.109740D+01
    14700.2340    0.113860D+01
    14720.2340    0.117803D+01
    14740.2340    0.120983D+01
    14760.2340    0.122940D+01
    14780.2340    0.123433D+01
    14800.2340    0.122458D+01
    14820.2340    0.120237D+01
    14840.2340    0.117172D+01
    14860.2340    0.113757D+01
    14880.2340    0.110488D+01
    14900.2340    0.107770D+01
    14920.2340    0.105865D+01
    14940.2340    0.104814D+01
    14960.2340    0.104489D+01
    14980.2340    0.104609D+01
    15000.2340    0.104856D+01
    15020.2340    0.104953D+01
    15040.2340    0.104766D+01
    15060.2340    0.104296D+01
    15080.2340    0.103706D+01
    15100.2340    0.103233D+01
    15120.2340    0.103122D+01
    15140.2340    0.103558D+01
    15160.2340    0.104597D+01
    15180.2340    0.106164D+01
    15200.2340    0.108065D+01
    15220.2340    0.110095D+01
    15240.2340    0.112000D+01
    15260.2340    0.113656D+01
    15280.2340    0.115061D+01
    15300.2340    0.116420D+01
    15320.2340    0.118137D+01
    15340.2340    0.120800D+01
    15360.2340    0.125063D+01
    15380.2340    0.131568D+01
    15400.2340    0.140744D+01
    15420.2340    0.152714D+01
    15440.2340    0.167143D+01
    15460.2340    0.183252D+01
    15480.2340    0.199855D+01
    15500.2340    0.215562D+01
    15520.2340    0.229126D+01
    15540.2340    0.239548D+01
    15560.2340    0.246603D+01
    15580.2340    0.250885D+01
    15600.2340    0.253843D+01
    15620.2340    0.257581D+01
    15640.2340    0.264493D+01
    15660.2340    0.276755D+01
    15680.2340    0.295907D+01
    15700.2340    0.322397D+01
    15720.2340    0.355440D+01
    15740.2340    0.392921D+01
    15760.2340    0.431746D+01
    15780.2340    0.468219D+01
    15800.2340    0.498690D+01
    15820.2340    0.520331D+01
    15840.2340    0.531562D+01
    15860.2340    0.532829D+01
    15880.2340    0.526570D+01
    15900.2340    0.516912D+01
    15920.2340    0.508912D+01
    15940.2340    0.507548D+01
    15960.2340    0.516532D+01
    15980.2340    0.537573D+01
    16000.2340    0.569894D+01
    16020.2340    0.610362D+01
    16040.2340    0.654143D+01
    16060.2340    0.695493D+01
    16080.2340    0.728916D+01
    16100.2340    0.750040D+01
    16120.2340    0.756316D+01
    16140.2340    0.747475D+01
    16160.2340    0.725425D+01
    16180.2340    0.694072D+01
    16200.2340    0.658516D+01
    16220.2340    0.624105D+01
    16240.2340    0.595529D+01
    16260.2340    0.575726D+01
    16280.2340    0.565620D+01
    16300.2340    0.563968D+01
    16320.2340    0.567881D+01
    16340.2340    0.573588D+01
    16360.2340    0.577399D+01
    16380.2340    0.576323D+01
    16400.2340    0.568705D+01
    16420.2340    0.554238D+01
    16440.2340    0.534233D+01
    16460.2340    0.510532D+01
    16480.2340    0.485670D+01
    16500.2340    0.462029D+01
    16520.2340    0.441400D+01
    16540.2340    0.424864D+01
    16560.2340    0.412310D+01
    16580.2340    0.403000D+01
    16600.2340    0.395695D+01
    16620.2340    0.389461D+01
    16640.2340    0.384034D+01
    16660.2340    0.380209D+01
    16680.2340    0.379592D+01
    16700.2340    0.384335D+01
    16720.2340    0.396342D+01
    16740.2340    0.416677D+01
    16760.2340    0.445125D+01
    16780.2340    0.480038D+01
    16800.2340    0.518540D+01
    16820.2340    0.557201D+01
    16840.2340    0.593052D+01
    16860.2340    0.623336D+01
    16880.2340    0.647117D+01
    16900.2340    0.665029D+01
    16920.2340    0.679646D+01
    16940.2340    0.695366D+01
    16960.2340    0.717990D+01
    16980.2340    0.754019D+01
    17000.2340    0.809702D+01
    17020.2340    0.889482D+01
    17040.2340    0.994943D+01
    17060.2340    0.112309D+02
    17080.2340    0.126628D+02
    17100.2340    0.141222D+02
    17120.2340    0.154586D+02
    17140.2340    0.165280D+02
    17160.2340    0.172113D+02
    17180.2340    0.174699D+02
    17200.2340    0.173566D+02
    17220.2340    0.170194D+02
    17240.2340    0.166801D+02
    17260.2340    0.165941D+02
    17280.2340    0.169970D+02
    17300.2340    0.180581D+02
    17320.2340    0.198386D+02
    17340.2340    0.222751D+02
    17360.2340    0.251771D+02
    17380.2340    0.282536D+02
    17400.2340    0.311506D+02
    17420.2340    0.335059D+02
    17440.2340    0.350147D+02
    17460.2340    0.354802D+02
    17480.2340    0.348735D+02
    17500.2340    0.333456D+02
    17520.2340    0.312062D+02
    17540.2340    0.288665D+02
    17560.2340    0.267584D+02
    17580.2340    0.252373D+02
    17600.2340    0.245190D+02
    17620.2340    0.246399D+02
    17640.2340    0.254642D+02
    17660.2340    0.267257D+02
    17680.2340    0.280897D+02
    17700.2340    0.292195D+02
    17720.2340    0.298335D+02
    17740.2340    0.297409D+02
    17760.2340    0.288758D+02
    17780.2340    0.272731D+02
    17800.2340    0.250742D+02
    17820.2340    0.224876D+02
    17840.2340    0.197493D+02
    17860.2340    0.170932D+02
    17880.2340    0.146911D+02
    17900.2340    0.126534D+02
    17920.2340    0.110107D+02
    17940.2340    0.973513D+01
    17960.2340    0.876117D+01
    17980.2340    0.801766D+01
    18000.2340    0.744625D+01
    18020.2340    0.701977D+01
    18040.2340    0.673939D+01
    18060.2340    0.664432D+01
    18080.2340    0.676634D+01
    18100.2340    0.714278D+01
    18120.2340    0.778242D+01
    18140.2340    0.865943D+01
    18160.2340    0.971418D+01
    18180.2340    0.108430D+02
    18200.2340    0.119328D+02
    18220.2340    0.128778D+02
    18240.2340    0.136176D+02
    18260.2340    0.141558D+02
    18280.2340    0.145640D+02
    18300.2340    0.149658D+02
    18320.2340    0.155010D+02
    18340.2340    0.162793D+02
    18360.2340    0.173452D+02
    18380.2340    0.186579D+02
    18400.2340    0.201026D+02
    18420.2340    0.215096D+02
    18440.2340    0.227078D+02
    18460.2340    0.235839D+02
    18480.2340    0.240500D+02
    18500.2340    0.241388D+02
    18520.2340    0.239657D+02
    18540.2340    0.237373D+02
    18560.2340    0.237459D+02
    18580.2340    0.243582D+02
    18600.2340    0.259902D+02
    18620.2340    0.290706D+02
    18640.2340    0.339549D+02
    18660.2340    0.408369D+02
    18680.2340    0.496191D+02
    18700.2340    0.598382D+02
    18720.2340    0.706311D+02
    18740.2340    0.808152D+02
    18760.2340    0.891068D+02
    18780.2340    0.943215D+02
    18800.2340    0.957573D+02
    18820.2340    0.933651D+02
    18840.2340    0.878149D+02
    18860.2340    0.803922D+02
    18880.2340    0.727364D+02
    18900.2340    0.665088D+02
    18920.2340    0.630830D+02
    18940.2340    0.633007D+02
    18960.2340    0.673589D+02
    18980.2340    0.747939D+02
    19000.2340    0.845543D+02
    19020.2340    0.951478D+02
    19040.2340    0.104851D+03
    19060.2340    0.111968D+03
    19080.2340    0.115125D+03
    19100.2340    0.113526D+03
    19120.2340    0.107122D+03
    19140.2340    0.966053D+02
    19160.2340    0.832464D+02
    19180.2340    0.686397D+02
    19200.2340    0.542920D+02
    19220.2340    0.414092D+02
    19240.2340    0.307138D+02
    19260.2340    0.224388D+02
    19280.2340    0.164279D+02
    19300.2340    0.122966D+02
    19320.2340    0.958222D+01
    19340.2340    0.785902D+01
    19360.2340    0.678513D+01
    19380.2340    0.614728D+01
    19400.2340    0.577554D+01
    19420.2340    0.557125D+01
    19440.2340    0.546452D+01
    19460.2340    0.538991D+01
    19480.2340    0.533935D+01
    19500.2340    0.526188D+01
    19520.2340    0.515491D+01
    19540.2340    0.502188D+01
    19560.2340    0.488250D+01
    19580.2340    0.476070D+01
    19600.2340    0.468002D+01
    19620.2340    0.466272D+01
    19640.2340    0.473251D+01
    19660.2340    0.491844D+01
    19680.2340    0.526077D+01
    19700.2340    0.581018D+01
    19720.2340    0.662530D+01
    19740.2340    0.773632D+01
    19760.2340    0.914558D+01
    19780.2340    0.108003D+02
    19800.2340    0.125935D+02
    19820.2340    0.143857D+02
    19840.2340    0.160449D+02
    19860.2340    0.174904D+02
    19880.2340    0.187273D+02
    19900.2340    0.198442D+02
    19920.2340    0.209814D+02
    19940.2340    0.222668D+02
    19960.2340    0.237463D+02
    19980.2340    0.253354D+02
    20000.2340    0.268136D+02
    20020.2340    0.278681D+02
    20040.2340    0.281769D+02
    20060.2340    0.275030D+02
    20080.2340    0.258021D+02
    20100.2340    0.231651D+02
    20120.2340    0.199086D+02
    20140.2340    0.164619D+02
    20160.2340    0.133137D+02
    20180.2340    0.109609D+02
    20200.2340    0.988474D+01
    20220.2340    0.105457D+02
    20240.2340    0.133871D+02
    20260.2340    0.187791D+02
    20280.2340    0.269396D+02
    20300.2340    0.377907D+02
    20320.2340    0.508149D+02
    20340.2340    0.649733D+02
    20360.2340    0.787568D+02
    20380.2340    0.903901D+02
    20400.2340    0.981821D+02
    20420.2340    0.100908D+03
    20440.2340    0.981300D+02
    20460.2340    0.902850D+02
    20480.2340    0.785891D+02
    20500.2340    0.647199D+02
    20520.2340    0.504242D+02
    20540.2340    0.371676D+02
    20560.2340    0.259186D+02
    20580.2340    0.170994D+02
    20600.2340    0.106726D+02
    20620.2340    0.630201D+01
    20640.2340    0.352053D+01
    20660.2340    0.186061D+01
    20680.2340    0.930267D+00
    20700.2340    0.440043D+00
    20720.2340    0.196925D+00
    20740.2340    0.833725D-01
    20760.2340    0.333936D-01
    20780.2340    0.000000D+00
    20800.2340    0.000000D+00
    20820.2340    0.000000D+00
    20840.2340    0.000000D+00
    20860.2340    0.000000D+00
    20880.2340    0.000000D+00
    20900.2340    0.000000D+00
    20920.2340    0.000000D+00
    20940.2340    0.000000D+00
    20960.2340    0.000000D+00
    20980.2340    0.000000D+00
    21000.2340    0.000000D+00
    21020.2340    0.000000D+00
    21040.2340    0.000000D+00
    21060.2340    0.000000D+00
    21080.2340    0.000000D+00
    21100.2340    0.000000D+00
    21120.2340    0.000000D+00
    21140.2340    0.000000D+00
    21160.2340    0.000000D+00
    21180.2340    0.000000D+00
    21200.2340    0.000000D+00
    21220.2340    0.000000D+00
    21240.2340    0.000000D+00
    21260.2340    0.000000D+00
    21280.2340    0.000000D+00
    21300.2340    0.000000D+00
    21320.2340    0.000000D+00
    21340.2340    0.000000D+00
    21360.2340    0.000000D+00
    21380.2340    0.000000D+00
    21400.2340    0.000000D+00
    21420.2340    0.000000D+00
 -----------------------------

 Leave Link  718 at Tue May  7 13:58:35 2024, MaxMem=120795955200 cpu:            4575.7 elap:              35.9
 (Enter /apps/gaussian/g16-c01-avx2/g16/l9999.exe)

 ----------------------------------------------------------------------

 Electric dipole moment (input orientation):
 (Debye = 10**-18 statcoulomb cm , SI units = C m)
                  (au)            (Debye)         (10**-30 SI)
   Tot        0.197645D-03      0.502362D-03      0.167570D-02
   x         -0.189940D-03     -0.482778D-03     -0.161037D-02
   y         -0.546476D-04     -0.138900D-03     -0.463321D-03
   z          0.000000D+00      0.000000D+00      0.000000D+00

 Dipole polarizability, Alpha (input orientation).
 (esu units = cm**3 , SI units = C**2 m**2 J**-1)
 Alpha(0;0):
               (au)            (10**-24 esu)      (10**-40 SI)
   iso        0.263798D+03      0.390909D+02      0.434944D+02
   aniso      0.267253D+03      0.396028D+02      0.440641D+02
   xx         0.401788D+03      0.595389D+02      0.662460D+02
   yx         0.198390D+01      0.293983D+00      0.327101D+00
   yy         0.292390D+03      0.433277D+02      0.482086D+02
   zx         0.487650D-01      0.722623D-02      0.804026D-02
   zy         0.618049D-01      0.915854D-02      0.101902D-01
   zz         0.972163D+02      0.144060D+02      0.160288D+02

 ----------------------------------------------------------------------

 Dipole orientation:
     6          0.80134099         -2.79544788          6.46201858
     6          1.00617394         -3.50318357          3.94587432
     6          0.51749192         -1.80185431          1.96294038
     6         -0.20659996          0.71359526          2.58167512
     6         -0.41393450          1.42972206          5.17383487
     6          0.09914839         -0.35641995          7.08143264
     6          0.72781293         -2.52872715         -0.66646596
     6         -0.72805111          2.52914651          0.66651399
     6         -0.51752168          1.80236691         -1.96329032
     6          0.20652802         -0.71334581         -2.58178675
     6         -1.00573192          3.50324780         -3.94676081
     6         -1.43443696          4.98250598          1.40639118
     6         -1.63268023          5.66696803          3.92957037
     6         -1.12992892          3.91673050          5.80263357
     1         -1.28125054          4.43919287          7.77500230
     1         -2.18148369          7.57313091          4.42207779
     1          1.19302968         -4.15888087          7.93333066
     1         -0.06404473          0.20740649          9.04143812
     6          1.43389594         -4.98222505         -1.40566118
     6          1.63215715         -5.66709713         -3.92875758
     6          1.12973544         -3.91704464         -5.80209729
     6          0.41397437         -1.42986050         -5.17364990
     1          2.18072528         -7.57342015         -4.42086076
     1          1.28110558         -4.43975637         -7.77440492
     6         -0.80068022          2.79509492         -6.46285732
     1         -1.19209068          4.15853670         -7.93425125
     6         -0.09876475          0.35607488         -7.08169165
     1          0.06461048         -0.20830424         -9.04152036
     1          1.55894413         -5.42326709          3.53512032
     1          1.84072322         -6.39917228          0.00421440
     1         -1.84157609          6.39969213         -0.00301386
     1         -1.55826575          5.42336066         -3.53632998

 Electric dipole moment (dipole orientation):
 (Debye = 10**-18 statcoulomb cm , SI units = C m)
                  (au)            (Debye)         (10**-30 SI)
   Tot        0.197645D-03      0.502363D-03      0.167570D-02
   x          0.000000D+00      0.000000D+00      0.000000D+00
   y          0.000000D+00      0.000000D+00      0.000000D+00
   z          0.197645D-03      0.502363D-03      0.167570D-02

 Dipole polarizability, Alpha (dipole orientation).
 (esu units = cm**3 , SI units = C**2 m**2 J**-1)
 Alpha(0;0):
               (au)            (10**-24 esu)      (10**-40 SI)
   iso        0.263798D+03      0.390909D+02      0.434944D+02
   aniso      0.267253D+03      0.396028D+02      0.440641D+02
   xx         0.112679D+03      0.166972D+02      0.185782D+02
   yx        -0.537749D+02     -0.796862D+01     -0.886628D+01
   yy         0.284237D+03      0.421195D+02      0.468643D+02
   zx        -0.777115D+01     -0.115157D+01     -0.128129D+01
   zy         0.262635D+02      0.389185D+01      0.433026D+01
   zz         0.394479D+03      0.584558D+02      0.650408D+02

 ----------------------------------------------------------------------

 This type of calculation cannot be archived.


 I do not feel obliged to believe that the same God who
 has endowed us with sense, reason, and intellect has
 intended us to forgo their use.
                   --Galileo Galilei
 Job cpu time:       0 days  1 hours 16 minutes 53.8 seconds.
 Elapsed time:       0 days  0 hours  0 minutes 36.2 seconds.
 File lengths (MBytes):  RWF=      6 Int=      0 D2E=      0 Chk=     54 Scr=      1
 Normal termination of Gaussian 16 at Tue May  7 13:58:44 2024.
