ch2o ground state opt                                                   
FOpt      RCIS-FC                                                     STO-3G              
Number of atoms                            I                4
Info1-9                                    I   N=           9
          16          16           0           0           0         100
           2         101           1
Full Title                                 C   N=           2
ch2o ground state opt   
Route                                      C   N=           4
#p opt cis(root=1)/sto-3g geom=connectivity     
Charge                                     I                0
Multiplicity                               I                1
Number of electrons                        I               16
Number of alpha electrons                  I                8
Number of beta electrons                   I                8
Number of basis functions                  I               12
Number of independent functions            I               12
Number of point charges in /Mol/           I                0
Number of translation vectors              I                0
Atomic numbers                             I   N=           4
           6           1           1           8
Nuclear charges                            R   N=           4
  6.00000000E+00  1.00000000E+00  1.00000000E+00  8.00000000E+00
Current cartesian coordinates              R   N=          12
  3.39964274E-32  1.68002383E-32 -1.10906975E+00  7.70330387E-32  1.78161041E+00
 -2.09815588E+00 -2.18184349E-16 -1.78161041E+00 -2.09815588E+00  1.01231788E-32
  3.17097577E-32  1.35634128E+00
Number of symbols in /Mol/                 I                0
Int Atom Types                             I   N=           4
           0           0           0           0
Force Field                                I                0
Atom Types                                 C   N=           4
                                                
MM charges                                 R   N=           4
  0.00000000E+00  0.00000000E+00  0.00000000E+00  0.00000000E+00
Integer atomic weights                     I   N=           4
          12           1           1          16
Real atomic weights                        R   N=           4
  1.20000000E+01  1.00782504E+00  1.00782504E+00  1.59949146E+01
Atom fragment info                         I   N=           4
           0           0           0           0
Atom residue num                           I   N=           4
           0           0           0           0
Nuclear spins                              I   N=           4
           0           1           1           0
Nuclear ZEff                               R   N=           4
 -3.60000000E+00 -1.00000000E+00 -1.00000000E+00 -5.60000000E+00
Nuclear ZNuc                               R   N=           4
  6.00000000E+00  1.00000000E+00  1.00000000E+00  8.00000000E+00
Nuclear QMom                               R   N=           4
  0.00000000E+00  0.00000000E+00  0.00000000E+00  0.00000000E+00
Nuclear GFac                               R   N=           4
  0.00000000E+00  2.79284600E+00  2.79284600E+00  0.00000000E+00
MicOpt                                     I   N=           4
          -1          -1          -1          -1
Number of residues                         I                0
Number of secondary structures             I                0
Redundant internal dimensions              I   N=           4
           7           3           3           1
Redundant internal coordinate indices      I   N=          28
           1           2           0           0           1           3
           0           0           1           4           0           0
           2           1           3           0           2           1
           4           0           3           1           4           0
           2           1           4           3
Redundant internal coordinates             R   N=           7
  2.03775049E+00  2.03775049E+00  2.46541103E+00  2.12799402E+00  2.07759564E+00
  2.07759564E+00  3.14159265E+00
ZRed-IntVec                                I   N=           7
           0           0           0           0           0           0
           0
ZRed-FPVec                                 R   N=           7
  0.00000000E+00  0.00000000E+00  0.00000000E+00  0.00000000E+00  0.00000000E+00
  0.00000000E+00  0.00000000E+00
ZRed-Constraint1                           R   N=           7
  2.08086112E+00  2.08086112E+00  2.29894443E+00  1.99854872E+00  2.14231829E+00
  2.14231829E+00  3.14159265E+00
ZRed-Constraint2                           R   N=           7
  0.00000000E+00  0.00000000E+00  0.00000000E+00  0.00000000E+00  0.00000000E+00
  0.00000000E+00  0.00000000E+00
SymInf integers                            I   N=          26
           2           4           1           1           1          -1
          -1           1          -1           1           1           1
          -1           1           0           0           0           0
           0           0           0           0           0           0
           0           0
RotTr to input orientation                 R   N=          12
 -1.00000000E+00  7.56330974E-16  2.47151959E-16 -7.56330974E-16 -1.00000000E+00
  7.21834404E-16  2.47151959E-16  7.21834404E-16  1.00000000E+00  5.21081934E-17
 -2.75886780E-19 -9.56338865E-03
Number of contracted shells                I                6
Number of primitive shells                 I               18
Pure/Cartesian d shells                    I                0
Pure/Cartesian f shells                    I                0
Highest angular momentum                   I                1
Largest degree of contraction              I                3
Shell types                                I   N=           6
           0          -1           0           0           0          -1
Number of primitives per shell             I   N=           6
           3           3           3           3           3           3
Shell to atom map                          I   N=           6
           1           1           2           3           4           4
Primitive exponents                        R   N=          18
  7.16168373E+01  1.30450963E+01  3.53051216E+00  2.94124936E+00  6.83483096E-01
  2.22289916E-01  3.42525091E+00  6.23913730E-01  1.68855404E-01  3.42525091E+00
  6.23913730E-01  1.68855404E-01  1.30709321E+02  2.38088661E+01  6.44360831E+00
  5.03315132E+00  1.16959612E+00  3.80388960E-01
Contraction coefficients                   R   N=          18
  1.54328967E-01  5.35328142E-01  4.44634542E-01 -9.99672292E-02  3.99512826E-01
  7.00115469E-01  1.54328967E-01  5.35328142E-01  4.44634542E-01  1.54328967E-01
  5.35328142E-01  4.44634542E-01  1.54328967E-01  5.35328142E-01  4.44634542E-01
 -9.99672292E-02  3.99512826E-01  7.00115469E-01
P(S=P) Contraction coefficients            R   N=          18
  0.00000000E+00  0.00000000E+00  0.00000000E+00  1.55916275E-01  6.07683719E-01
  3.91957393E-01  0.00000000E+00  0.00000000E+00  0.00000000E+00  0.00000000E+00
  0.00000000E+00  0.00000000E+00  0.00000000E+00  0.00000000E+00  0.00000000E+00
  1.55916275E-01  6.07683719E-01  3.91957393E-01
Coordinates of each shell                  R   N=          18
  2.96721560E-32 -6.87485343E-32 -1.10906975E+00  2.96721560E-32 -6.87485343E-32
 -1.10906975E+00 -1.65938983E-32  1.78161041E+00 -2.09815588E+00 -2.18184349E-16
 -1.78161041E+00 -2.09815588E+00 -1.05116645E-32 -6.58210459E-32  1.35634128E+00
 -1.05116645E-32 -6.58210459E-32  1.35634128E+00
Num ILSW                                   I              100
ILSW                                       I   N=         100
           0           0           0           1           2           0
           0           0           0           0           0          -1
           5           0           0           0           2           0
           0           0           0           0           1           0
           1           0           0           0           0           0
           0           0      100000           0          -1           0
           0           0           0           0           0           0
           0           0           0           1           0           0
           0 -2000000000           1           0           0           0
           0           0           4          52           0           0
           0           0           0           0           0           0
           0           0           0           4           0           1
           0           0           0           0           0           0
           0           0           0           0           0           0
           0           0           0           0           0           0
           0           0           0           0           0           0
           0           0           0           0
Num RLSW                                   I               52
RLSW                                       R   N=          52
  1.00000000E+00  1.00000000E+00  1.00000000E+00  1.00000000E+00  1.00000000E+00
  0.00000000E+00  0.00000000E+00  1.00000000E+00  0.00000000E+00  0.00000000E+00
  0.00000000E+00  0.00000000E+00  1.00000000E+00  0.00000000E+00  0.00000000E+00
  0.00000000E+00  0.00000000E+00  1.00000000E+00  0.00000000E+00  0.00000000E+00
  0.00000000E+00  0.00000000E+00  1.00000000E+00  0.00000000E+00  0.00000000E+00
  0.00000000E+00  0.00000000E+00  1.00000000E+00  0.00000000E+00  0.00000000E+00
  0.00000000E+00  0.00000000E+00  1.00000000E+00  0.00000000E+00  0.00000000E+00
  0.00000000E+00  0.00000000E+00  0.00000000E+00  1.00000000E+00  1.00000000E+00
  0.00000000E+00  1.00000000E+00  0.00000000E+00  0.00000000E+00  0.00000000E+00
  0.00000000E+00  0.00000000E+00  0.00000000E+00  0.00000000E+00  0.00000000E+00
  0.00000000E+00  0.00000000E+00
MxBond                                     I                3
NBond                                      I   N=           4
           3           1           1           1
IBond                                      I   N=          12
           2           3           4           1           0           0
           1           0           0           1           0           0
RBond                                      R   N=          12
  1.00000000E+00  1.00000000E+00  2.00000000E+00  1.00000000E+00  0.00000000E+00
  0.00000000E+00  1.00000000E+00  0.00000000E+00  0.00000000E+00  2.00000000E+00
  0.00000000E+00  0.00000000E+00
Virial Ratio                               R      2.009264182146432E+00
SCF Energy                                 R     -1.123397038573567E+02
CIS Energy                                 R     -1.122141263720113E+02
Total Energy                               R     -1.122141263720113E+02
Post-SCF wavefunction norm                 R      1.000000000000000E+00
RMS Force                                  R      1.377547083450058E-04
RMS Density                                R      2.140658675295109E-09
Job Status                                 I                1
Nuclear derivative order                   I                1
External E-field                           R   N=          35
  0.00000000E+00  0.00000000E+00  0.00000000E+00  0.00000000E+00  0.00000000E+00
  0.00000000E+00  0.00000000E+00  0.00000000E+00  0.00000000E+00  0.00000000E+00
  0.00000000E+00  0.00000000E+00  0.00000000E+00  0.00000000E+00  0.00000000E+00
  0.00000000E+00  0.00000000E+00  0.00000000E+00  0.00000000E+00  0.00000000E+00
  0.00000000E+00  0.00000000E+00  0.00000000E+00  0.00000000E+00  0.00000000E+00
  0.00000000E+00  0.00000000E+00  0.00000000E+00  0.00000000E+00  0.00000000E+00
  0.00000000E+00  0.00000000E+00  0.00000000E+00  0.00000000E+00  0.00000000E+00
IOpCl                                      I                0
IROHF                                      I                0
Alpha Orbital Energies                     R   N=          12
 -2.02937517E+01 -1.11056953E+01 -1.28043236E+00 -8.15989960E-01 -6.25838685E-01
 -5.16910537E-01 -3.95407289E-01 -3.60458032E-01  2.53218506E-01  6.31441745E-01
  7.73683971E-01  7.87973176E-01
Alpha MO coefficients                      R   N=         144
  5.55886454E-04 -5.74572883E-03  0.00000000E+00  0.00000000E+00 -5.37039588E-03
  1.67039453E-04  1.67039453E-04  9.94446197E-01  2.43985800E-02  0.00000000E+00
  0.00000000E+00 -4.49621711E-03  9.92626825E-01  3.29431392E-02  0.00000000E+00
  0.00000000E+00 -2.98001312E-06 -6.76912325E-03 -6.76912325E-03  3.08166249E-04
 -5.21462884E-03  0.00000000E+00  0.00000000E+00  2.16992959E-03 -1.12647102E-01
  2.79751461E-01  0.00000000E+00  0.00000000E+00  1.41842893E-01  3.56057527E-02
  3.56057527E-02 -2.22531633E-01  8.00936440E-01  0.00000000E+00  0.00000000E+00
 -1.38167583E-01 -1.91196377E-01  5.85862379E-01  0.00000000E+00  0.00000000E+00
 -2.01337230E-01  2.65349502E-01  2.65349502E-01  1.00065001E-01 -4.34359255E-01
  0.00000000E+00  0.00000000E+00 -1.54986882E-01  0.00000000E+00  0.00000000E+00
  0.00000000E+00  5.38038962E-01  0.00000000E+00  3.36628173E-01 -3.36628173E-01
  0.00000000E+00  0.00000000E+00  0.00000000E+00  3.64368458E-01  0.00000000E+00
  3.19203328E-02 -1.28559214E-01  0.00000000E+00  0.00000000E+00 -4.74364510E-01
  1.65088878E-01  1.65088878E-01 -8.66982070E-02  4.53886935E-01  0.00000000E+00
  0.00000000E+00  6.64909966E-01  0.00000000E+00  0.00000000E+00  6.24206706E-01
  0.00000000E+00  0.00000000E+00  0.00000000E+00  0.00000000E+00  0.00000000E+00
  0.00000000E+00  6.80336331E-01  0.00000000E+00  0.00000000E+00  0.00000000E+00
  0.00000000E+00  0.00000000E+00 -1.50718070E-01  0.00000000E+00 -2.95231986E-01
  2.95231986E-01  0.00000000E+00  0.00000000E+00  0.00000000E+00  9.16616718E-01
  0.00000000E+00  0.00000000E+00  0.00000000E+00  8.00916184E-01  0.00000000E+00
  0.00000000E+00  0.00000000E+00  0.00000000E+00  0.00000000E+00  0.00000000E+00
 -7.53819091E-01  0.00000000E+00  0.00000000E+00 -2.11834630E-01  1.32711963E+00
  0.00000000E+00  0.00000000E+00 -4.01141886E-01 -8.97940407E-01 -8.97940407E-01
  2.69356737E-02 -1.55442069E-01  0.00000000E+00  0.00000000E+00  2.60282238E-01
  0.00000000E+00  0.00000000E+00  0.00000000E+00  1.18339055E+00  0.00000000E+00
 -8.78518036E-01  8.78518036E-01  0.00000000E+00  0.00000000E+00  0.00000000E+00
 -2.52516104E-01  0.00000000E+00 -8.61869306E-02  4.77648857E-01  0.00000000E+00
  0.00000000E+00  1.09306455E+00  1.66121838E-01  1.66121838E-01  1.03724892E-01
 -7.03291116E-01  0.00000000E+00  0.00000000E+00  8.77748523E-01
Orthonormal basis                          R   N=         144
  1.64218348E-01  4.56513537E-01  0.00000000E+00  0.00000000E+00 -7.56024555E-04
  3.04258452E-01  3.04258452E-01  6.32276735E-02  2.01637453E-01  0.00000000E+00
  0.00000000E+00 -1.79597248E-01 -1.44510062E-02 -1.47900724E-02  0.00000000E+00
  0.00000000E+00  5.49014479E-01 -2.01582216E-01 -2.01582216E-01  1.96830980E-01
  3.90333196E-01  0.00000000E+00  0.00000000E+00 -2.28596411E-01 -1.57742204E-01
 -5.13877202E-02  0.00000000E+00  0.00000000E+00 -1.98476807E-01  6.37835970E-02
  6.37835970E-02  5.89682813E-01  3.72474751E-01  0.00000000E+00  0.00000000E+00
  5.67877458E-01  9.59539947E-01 -3.07247481E-02  0.00000000E+00  0.00000000E+00
 -6.14932074E-03 -1.65247294E-01 -1.65247294E-01  3.67098711E-02  4.65431587E-03
  0.00000000E+00  0.00000000E+00  2.57555411E-01  9.90559673E-02 -9.17655214E-02
  0.00000000E+00  0.00000000E+00 -1.92686377E-01 -3.94033660E-02 -3.94033660E-02
  7.83416518E-01 -4.79698688E-01  0.00000000E+00  0.00000000E+00 -5.38142722E-01
 -7.72314660E-03 -7.07677728E-03  0.00000000E+00  0.00000000E+00  1.12371707E+00
  4.54126507E-01  4.54126507E-01  2.22294743E-01 -8.60241305E-01  0.00000000E+00
  0.00000000E+00  6.21354092E-01 -3.24387128E-01  1.48588601E+00  0.00000000E+00
  0.00000000E+00 -2.63650652E-02 -7.48668574E-01 -7.48668574E-01  1.11748049E-01
 -5.03667454E-01  0.00000000E+00  0.00000000E+00  4.17637557E-01  0.00000000E+00
  0.00000000E+00  6.52696460E-01  0.00000000E+00  0.00000000E+00  0.00000000E+00
  0.00000000E+00  0.00000000E+00  0.00000000E+00  6.52696460E-01  0.00000000E+00
  0.00000000E+00  0.00000000E+00  0.00000000E+00  7.77874076E-01  0.00000000E+00
  0.00000000E+00  0.00000000E+00  0.00000000E+00  0.00000000E+00  0.00000000E+00
 -7.77874076E-01  0.00000000E+00  0.00000000E+00  0.00000000E+00  0.00000000E+00
  0.00000000E+00  5.84654260E-01  0.00000000E+00  3.52105715E-01 -3.52105715E-01
  0.00000000E+00  0.00000000E+00  0.00000000E+00  2.23859793E-01  0.00000000E+00
  0.00000000E+00  0.00000000E+00  0.00000000E+00 -1.32650047E-01  0.00000000E+00
 -1.98559313E-01  1.98559313E-01  0.00000000E+00  0.00000000E+00  0.00000000E+00
  9.71063855E-01  0.00000000E+00  0.00000000E+00  0.00000000E+00  0.00000000E+00
 -1.16327057E+00  0.00000000E+00  8.99372090E-01 -8.99372090E-01  0.00000000E+00
  0.00000000E+00  0.00000000E+00  2.08894103E-01  0.00000000E+00
Total SCF Density                          R   N=          78
  2.07114531E+00 -2.29869118E-01  8.78282686E-01  9.08292187E-35  0.00000000E+00
  7.79268024E-01  3.63316875E-34  0.00000000E+00  2.15704154E-32  6.24403721E-01
  1.47378833E-02 -3.45209299E-02  3.52160593E-33  1.40864237E-32  5.71413232E-01
 -1.12388354E-01  2.87942799E-01  7.70371978E-33  4.51231735E-01 -2.53374985E-01
  5.98917533E-01 -1.12388354E-01  2.87942799E-01 -1.07852077E-32 -4.51231735E-01
 -2.53374985E-01 -2.03004276E-01  5.98917533E-01  8.05347100E-03  3.62591440E-03
 -1.96295203E-34 -7.85180811E-34 -3.18507176E-02  8.95981579E-03  8.95981579E-03
  2.11194649E+00  4.30070279E-03 -1.78149856E-01 -1.77235314E-34 -7.08941257E-34
 -2.87580739E-02 -2.35360168E-02 -2.35360168E-02 -4.73575136E-01  2.07360595E+00
  8.45223619E-34  0.00000000E+00  8.49341001E-01  1.54074396E-32  1.57034042E-32
 -3.08148791E-33  7.70371978E-33 -5.77830553E-34  0.00000000E+00  9.25715047E-01
  3.38089447E-33  0.00000000E+00  1.23259516E-32  1.15787449E-01  6.41037455E-49
 -2.95915771E-01  2.95915771E-01 -2.31132221E-33  0.00000000E+00  4.93038066E-32
  1.94590116E+00  1.37145373E-01 -4.29673102E-01 -3.74436539E-33 -1.49774616E-32
 -6.07558021E-01  1.27417096E-01  1.27417096E-01 -9.37583677E-02  5.16658928E-01
  5.98106206E-33  2.39242483E-32  9.70482805E-01
Total CI Rho(1) Density                    R   N=          78
  2.07114531E+00 -2.29869118E-01  8.78282686E-01  9.08292187E-35  0.00000000E+00
  1.42073434E+00  3.63316875E-34  0.00000000E+00  2.15704154E-32  6.20678631E-01
  1.47378833E-02 -3.45209299E-02  3.52160593E-33  1.40864237E-32  5.71413232E-01
 -1.12388354E-01  2.87942799E-01  7.70371978E-33  4.36799581E-01 -2.53374985E-01
  5.43014973E-01 -1.12388354E-01  2.87942799E-01 -1.07852077E-32 -4.36799581E-01
 -2.53374985E-01 -1.47101716E-01  5.43014973E-01  8.05347100E-03  3.62591440E-03
 -1.96295203E-34 -7.85180811E-34 -3.18507176E-02  8.95981579E-03  8.95981579E-03
  2.11194649E+00  4.30070279E-03 -1.78149856E-01 -1.77235314E-34 -7.08941257E-34
 -2.87580739E-02 -2.35360168E-02 -2.35360168E-02 -4.73575136E-01  2.07360595E+00
  8.45223619E-34  0.00000000E+00  2.45595164E-01  1.54074396E-32  1.57034042E-32
 -3.08148791E-33  7.70371978E-33 -5.77830553E-34  0.00000000E+00  1.49395785E+00
  3.38089447E-33  0.00000000E+00  1.23259516E-32  1.74612011E-01  6.41037455E-49
 -6.80519504E-02  6.80519504E-02 -2.31132221E-33  0.00000000E+00  4.93038066E-32
  1.01711384E+00  1.37145373E-01 -4.29673102E-01 -3.74436539E-33 -1.49774616E-32
 -6.07558021E-01  1.27417096E-01  1.27417096E-01 -9.37583677E-02  5.16658928E-01
  5.98106206E-33  2.39242483E-32  9.70482805E-01
Total CI Density                           R   N=          78
  2.06538724E+00 -2.04333929E-01  7.80833605E-01  9.08292187E-35  0.00000000E+00
  1.29309834E+00  2.40251149E-18 -1.43649679E-17  2.15704154E-32  5.96608014E-01
  2.68217778E-02 -8.97077831E-02  3.52160593E-33  7.58841138E-18  4.27068814E-01
 -1.20938223E-01  3.12500932E-01  7.70371978E-33  4.37292338E-01 -2.31908053E-01
  5.73662257E-01 -1.20938223E-01  3.12500932E-01 -1.07852077E-32 -4.37292338E-01
 -2.31908053E-01 -1.41522728E-01  5.73662257E-01  9.25004590E-03  2.74544301E-05
 -1.96295203E-34  5.28312113E-19 -3.93857249E-02  1.12750221E-02  1.12750221E-02
  2.11186872E+00 -6.05816700E-03 -1.39778947E-01 -1.77235314E-34 -2.24861283E-18
  3.90258878E-02 -4.09377091E-02 -4.09377091E-02 -4.71133741E-01  2.04434118E+00
  8.45223619E-34  0.00000000E+00  2.36103796E-01  1.54074396E-32  1.57034042E-32
 -3.08148791E-33  7.70371978E-33 -5.77830553E-34  0.00000000E+00  1.62489066E+00
  6.09420392E-19 -4.00187155E-18  1.23259516E-32  1.73653044E-01  1.26046829E-18
 -6.36321495E-02  6.36321495E-02 -1.99667797E-19  9.18586353E-19  4.93038066E-32
  1.01861910E+00  1.34363937E-01 -3.83820330E-01 -3.74436539E-33  7.85191947E-19
 -5.81258163E-01  1.39493406E-01  1.39493406E-01 -8.42227089E-02  4.69043614E-01
  5.98106206E-33 -1.08245048E-18  1.13906527E+00
Number of excited states                   I                3
Excited state NLR                          I                1
Number of ex state dens                    I                3
Number of g2e trans dens                   I                3
Number of e2e trans dens                   I                0
Excited state spins                        I   N=           3
           0           0           0
Excited state densities                    R   N=         468
  1.03557265E+00 -1.14934559E-01  4.39141343E-01  4.54146093E-35  0.00000000E+00
  7.10367171E-01  1.81658437E-34  0.00000000E+00  1.07852077E-32  3.10339315E-01
  7.36894167E-03 -1.72604649E-02  1.76080297E-33  7.04321187E-33  2.85706616E-01
 -5.61941768E-02  1.43971400E-01  3.85185989E-33  2.18399790E-01 -1.26687492E-01
  2.71507487E-01 -5.61941768E-02  1.43971400E-01 -5.39260384E-33 -2.18399790E-01
 -1.26687492E-01 -7.35508579E-02  2.71507487E-01  4.02673550E-03  1.81295720E-03
 -9.81476013E-35 -3.92590405E-34 -1.59253588E-02  4.47990789E-03  4.47990789E-03
  1.05597324E+00  2.15035139E-03 -8.90749282E-02 -8.86176571E-35 -3.54470628E-34
 -1.43790370E-02 -1.17680084E-02 -1.17680084E-02 -2.36787568E-01  1.03680298E+00
  4.22611809E-34  0.00000000E+00  1.22797582E-01  7.70371978E-33  7.85170208E-33
 -1.54074396E-33  3.85185989E-33 -2.88915277E-34  0.00000000E+00  7.46978926E-01
  1.69044724E-33  0.00000000E+00  6.16297582E-33  8.73060056E-02  3.20518727E-49
 -3.40259752E-02  3.40259752E-02 -1.15566111E-33  0.00000000E+00  2.46519033E-32
  5.08556922E-01  6.85726866E-02 -2.14836551E-01 -1.87218270E-33 -7.48873079E-33
 -3.03779011E-01  6.37085479E-02  6.37085479E-02 -4.68791839E-02  2.58329464E-01
  2.99053103E-33  1.19621241E-32  4.85241403E-01  1.03557265E+00 -1.14934559E-01
  4.39141343E-01  4.54146093E-35  0.00000000E+00  7.10367171E-01  1.81658437E-34
  0.00000000E+00  1.07852077E-32  3.10339315E-01  7.36894167E-03 -1.72604649E-02
  1.76080297E-33  7.04321187E-33  2.85706616E-01 -5.61941768E-02  1.43971400E-01
  3.85185989E-33  2.18399790E-01 -1.26687492E-01  2.71507487E-01 -5.61941768E-02
  1.43971400E-01 -5.39260384E-33 -2.18399790E-01 -1.26687492E-01 -7.35508579E-02
  2.71507487E-01  4.02673550E-03  1.81295720E-03 -9.81476013E-35 -3.92590405E-34
 -1.59253588E-02  4.47990789E-03  4.47990789E-03  1.05597324E+00  2.15035139E-03
 -8.90749282E-02 -8.86176571E-35 -3.54470628E-34 -1.43790370E-02 -1.17680084E-02
 -1.17680084E-02 -2.36787568E-01  1.03680298E+00  4.22611809E-34  0.00000000E+00
  1.22797582E-01  7.70371978E-33  7.85170208E-33 -1.54074396E-33  3.85185989E-33
 -2.88915277E-34  0.00000000E+00  7.46978926E-01  1.69044724E-33  0.00000000E+00
  6.16297582E-33  8.73060056E-02  3.20518727E-49 -3.40259752E-02  3.40259752E-02
 -1.15566111E-33  0.00000000E+00  2.46519033E-32  5.08556922E-01  6.85726866E-02
 -2.14836551E-01 -1.87218270E-33 -7.48873079E-33 -3.03779011E-01  6.37085479E-02
  6.37085479E-02 -4.68791839E-02  2.58329464E-01  2.99053103E-33  1.19621241E-32
  4.85241403E-01  1.03435744E+00 -1.10592061E-01  4.23625098E-01  4.54146093E-35
  0.00000000E+00  7.10314407E-01  1.81658437E-34  0.00000000E+00  1.07852077E-32
  3.12201861E-01  1.90887893E-02 -5.91384081E-02  1.76080297E-33  7.04321187E-33
  1.72680855E-01 -5.98960051E-02  1.57203393E-01  3.85185989E-33  2.25615868E-01
 -9.09800764E-02  2.88191582E-01 -5.98960051E-02  1.57203393E-01 -5.39260384E-33
 -2.25615868E-01 -9.09800764E-02 -1.12769323E-01  2.88191582E-01  5.79984927E-03
 -4.52335501E-03 -9.81476013E-35 -3.92590405E-34 -3.30260574E-02  9.88077190E-03
  9.88077190E-03  1.05338612E+00 -7.78887853E-03 -5.35576350E-02 -8.86176571E-35
 -3.54470628E-34  8.14776342E-02 -4.20453630E-02 -4.20453630E-02 -2.22285254E-01
  9.55509944E-01  4.22611809E-34  0.00000000E+00  1.22806745E-01  7.70371978E-33
  7.85170208E-33 -1.54074396E-33  3.85185989E-33 -2.88915277E-34  0.00000000E+00
  7.46926163E-01  1.69044724E-33  0.00000000E+00  6.16297582E-33  5.78937245E-02
  3.20518727E-49 -1.47957885E-01  1.47957885E-01 -1.15566111E-33  0.00000000E+00
  2.46519033E-32  9.72950580E-01  5.18026471E-02 -1.54891953E-01 -1.87218270E-33
 -7.48873079E-33 -1.42015569E-01  1.26683531E-02  1.26683531E-02 -2.24122862E-02
  1.21166835E-01  2.99053103E-33  1.19621241E-32  2.54030654E-01  1.03435744E+00
 -1.10592061E-01  4.23625098E-01  4.54146093E-35  0.00000000E+00  7.10314407E-01
  1.81658437E-34  0.00000000E+00  1.07852077E-32  3.12201861E-01  1.90887893E-02
 -5.91384081E-02  1.76080297E-33  7.04321187E-33  1.72680855E-01 -5.98960051E-02
  1.57203393E-01  3.85185989E-33  2.25615868E-01 -9.09800764E-02  2.88191582E-01
 -5.98960051E-02  1.57203393E-01 -5.39260384E-33 -2.25615868E-01 -9.09800764E-02
 -1.12769323E-01  2.88191582E-01  5.79984927E-03 -4.52335501E-03 -9.81476013E-35
 -3.92590405E-34 -3.30260574E-02  9.88077190E-03  9.88077190E-03  1.05338612E+00
 -7.78887853E-03 -5.35576350E-02 -8.86176571E-35 -3.54470628E-34  8.14776342E-02
 -4.20453630E-02 -4.20453630E-02 -2.22285254E-01  9.55509944E-01  4.22611809E-34
  0.00000000E+00  1.22806745E-01  7.70371978E-33  7.85170208E-33 -1.54074396E-33
  3.85185989E-33 -2.88915277E-34  0.00000000E+00  7.46926163E-01  1.69044724E-33
  0.00000000E+00  6.16297582E-33  5.78937245E-02  3.20518727E-49 -1.47957885E-01
  1.47957885E-01 -1.15566111E-33  0.00000000E+00  2.46519033E-32  9.72950580E-01
  5.18026471E-02 -1.54891953E-01 -1.87218270E-33 -7.48873079E-33 -1.42015569E-01
  1.26683531E-02  1.26683531E-02 -2.24122862E-02  1.21166835E-01  2.99053103E-33
  1.19621241E-32  2.54030654E-01  1.03660876E+00 -1.21938165E-01  4.83227091E-01
  4.54146093E-35  0.00000000E+00  4.96280843E-01  1.81658437E-34  0.00000000E+00
  1.07852077E-32  3.23362047E-01  7.68032014E-04  2.63067694E-02  1.76080297E-33
  7.04321187E-33  3.29593651E-01 -5.55720829E-02  1.38917626E-01  3.85185989E-33
  2.17222900E-01 -1.26494464E-01  3.06282672E-01 -5.55720829E-02  1.38917626E-01
 -5.39260384E-33 -2.17222900E-01 -1.26494464E-01 -1.07208176E-01  3.06282672E-01
  3.21382663E-03  7.06431877E-03 -9.81476013E-35 -3.92590405E-34 -1.04614167E-02
  4.18200812E-03  4.18200812E-03  1.05662610E+00  7.56653300E-03 -1.24143667E-01
 -8.86176571E-35 -3.54470628E-34 -5.03887737E-02 -1.00697928E-02 -1.00697928E-02
 -2.41136471E-01  1.06570575E+00  4.22611809E-34  0.00000000E+00 -1.08461789E-02
  7.70371978E-33  7.85170208E-33 -1.54074396E-33  3.85185989E-33 -2.88915277E-34
  0.00000000E+00  5.07486556E-01  1.69044724E-33  0.00000000E+00  6.16297582E-33
  5.40720531E-02  3.20518727E-49 -1.45709905E-01  1.45709905E-01 -1.15566111E-33
  0.00000000E+00  2.46519033E-32  9.65905079E-01  5.69307434E-02 -1.54512170E-01
 -1.87218270E-33 -7.48873079E-33 -2.24498549E-01  5.19266584E-02  5.19266584E-02
 -3.85443690E-02  2.01548417E-01  2.99053103E-33  1.19621241E-32  5.09734169E-01
  1.03660876E+00 -1.21938165E-01  4.83227091E-01  4.54146093E-35  0.00000000E+00
  4.96280843E-01  1.81658437E-34  0.00000000E+00  1.07852077E-32  3.23362047E-01
  7.68032014E-04  2.63067694E-02  1.76080297E-33  7.04321187E-33  3.29593651E-01
 -5.55720829E-02  1.38917626E-01  3.85185989E-33  2.17222900E-01 -1.26494464E-01
  3.06282672E-01 -5.55720829E-02  1.38917626E-01 -5.39260384E-33 -2.17222900E-01
 -1.26494464E-01 -1.07208176E-01  3.06282672E-01  3.21382663E-03  7.06431877E-03
 -9.81476013E-35 -3.92590405E-34 -1.04614167E-02  4.18200812E-03  4.18200812E-03
  1.05662610E+00  7.56653300E-03 -1.24143667E-01 -8.86176571E-35 -3.54470628E-34
 -5.03887737E-02 -1.00697928E-02 -1.00697928E-02 -2.41136471E-01  1.06570575E+00
  4.22611809E-34  0.00000000E+00 -1.08461789E-02  7.70371978E-33  7.85170208E-33
 -1.54074396E-33  3.85185989E-33 -2.88915277E-34  0.00000000E+00  5.07486556E-01
  1.69044724E-33  0.00000000E+00  6.16297582E-33  5.40720531E-02  3.20518727E-49
 -1.45709905E-01  1.45709905E-01 -1.15566111E-33  0.00000000E+00  2.46519033E-32
  9.65905079E-01  5.69307434E-02 -1.54512170E-01 -1.87218270E-33 -7.48873079E-33
 -2.24498549E-01  5.19266584E-02  5.19266584E-02 -3.85443690E-02  2.01548417E-01
  2.99053103E-33  1.19621241E-32  5.09734169E-01
G to E trans densities                     R   N=         864
  0.00000000E+00  0.00000000E+00  0.00000000E+00  0.00000000E+00  0.00000000E+00
  0.00000000E+00  0.00000000E+00  0.00000000E+00  0.00000000E+00  0.00000000E+00
  0.00000000E+00  0.00000000E+00  0.00000000E+00  0.00000000E+00  0.00000000E+00
  0.00000000E+00  0.00000000E+00  0.00000000E+00  0.00000000E+00  0.00000000E+00
  0.00000000E+00  0.00000000E+00  0.00000000E+00  0.00000000E+00  0.00000000E+00
  0.00000000E+00  0.00000000E+00 -4.69786005E-04  0.00000000E+00  3.48756779E-04
 -3.48756779E-04  0.00000000E+00  0.00000000E+00  0.00000000E+00  1.00244616E-04
  0.00000000E+00  0.00000000E+00  0.00000000E+00 -4.88864523E-02  0.00000000E+00
  0.00000000E+00  0.00000000E+00  0.00000000E+00  0.00000000E+00  0.00000000E+00
  4.60117323E-02  0.00000000E+00  0.00000000E+00  0.00000000E+00  0.00000000E+00
  0.00000000E+00  0.00000000E+00  0.00000000E+00  0.00000000E+00  0.00000000E+00