HF/STO-3G for formaldehyde, calculating the first two excited states and
SP        RTD-FC                                                      STO-3G              
Number of atoms                            I                4
Info1-9                                    I   N=           9
           9           9           0           0           0         110
           1         201           1
Full Title                                 C   N=           9
HF/STO-3G for formaldehyde, calculating the first two excite
d states and optimizing its geometry.           
Route                                      C   N=           6
# CIS/STO-3G CIS=(nstates=2, Root=1) geom=check Density=Curr
ent         
Charge                                     I                0
Multiplicity                               I                1
Number of electrons                        I               16
Number of alpha electrons                  I                8
Number of beta electrons                   I                8
Number of basis functions                  I               12
Number of independent functions            I               12
Number of point charges in /Mol/           I                0
Number of translation vectors              I                0
Atomic numbers                             I   N=           4
           6           1           1           8
Nuclear charges                            R   N=           4
  6.00000000E+00  1.00000000E+00  1.00000000E+00  8.00000000E+00
Current cartesian coordinates              R   N=          12
 -7.39557099E-32 -4.53394117E-17 -1.00877655E+00 -1.57772181E-30 -1.75016840E+00
 -2.13434225E+00  2.14333813E-16  1.75016840E+00 -2.13434225E+00  2.46519033E-31
  5.52166566E-18  1.29016798E+00
Number of symbols in /Mol/                 I                0
Int Atom Types                             I   N=           4
           0           0           0           0
Force Field                                I                0
Atom Types                                 C   N=           4
                                                
MM charges                                 R   N=           4
  0.00000000E+00  0.00000000E+00  0.00000000E+00  0.00000000E+00
Integer atomic weights                     I   N=           4
          12           1           1          16
Real atomic weights                        R   N=           4
  1.20000000E+01  1.00782504E+00  1.00782504E+00  1.59949146E+01
Atom fragment info                         I   N=           4
           0           0           0           0
Atom residue num                           I   N=           4
           0           0           0           0
Nuclear spins                              I   N=           4
           0           1           1           0
Nuclear ZEff                               R   N=           4
 -3.60000000E+00 -1.00000000E+00 -1.00000000E+00 -5.60000000E+00
Nuclear ZNuc                               R   N=           4
  6.00000000E+00  1.00000000E+00  1.00000000E+00  8.00000000E+00
Nuclear QMom                               R   N=           4
  0.00000000E+00  0.00000000E+00  0.00000000E+00  0.00000000E+00
Nuclear GFac                               R   N=           4
  0.00000000E+00  2.79284600E+00  2.79284600E+00  0.00000000E+00
MicOpt                                     I   N=           4
          -1          -1          -1          -1
Number of residues                         I                0
Number of secondary structures             I                0
Redundant internal dimensions              I   N=           4
           7           3           3           1
Redundant internal coordinate indices      I   N=          28
           1           2           0           0           1           3
           0           0           1           4           0           0
           2           1           3           0           2           1
           4           0           3           1           4           0
           2           1           4           3
Redundant internal coordinates             R   N=           7
  2.08086221E+00  2.08086221E+00  2.29894453E+00  1.99854786E+00  2.14231872E+00
  2.14231872E+00  3.14159265E+00
ZRed-IntVec                                I   N=           7
           0           0           0           0           0           0
           0
ZRed-FPVec                                 R   N=           7
  0.00000000E+00  0.00000000E+00  0.00000000E+00  0.00000000E+00  0.00000000E+00
  0.00000000E+00  0.00000000E+00
ZRed-Constraint1                           R   N=           7
  2.08086221E+00  2.08086221E+00  2.29894453E+00  1.99854786E+00  2.14231872E+00
  2.14231872E+00  3.14159265E+00
ZRed-Constraint2                           R   N=           7
  2.08086221E+00  2.08086221E+00  2.29894453E+00  1.99854786E+00  2.14231872E+00
  2.14231872E+00  3.14159265E+00
SymInf integers                            I   N=          26
           2           4           1           1           1          -1
          -1           1          -1           1           1           1
          -1           1           0           0           0           0
           0           0           0           0           0           0
           0           0
RotTr to input orientation                 R   N=          12
  6.94994520E-16 -6.13179477E-16 -1.00000000E+00 -8.66116354E-01  4.99842436E-01
 -9.08439243E-16  4.99842436E-01  8.66116354E-01 -1.83697020E-16 -4.44200153E-01
  1.76602634E-01 -8.14158563E-17
Number of contracted shells                I                6
Number of primitive shells                 I               18
Pure/Cartesian d shells                    I                0
Pure/Cartesian f shells                    I                0
Highest angular momentum                   I                1
Largest degree of contraction              I                3
Shell types                                I   N=           6
           0          -1           0           0           0          -1
Number of primitives per shell             I   N=           6
           3           3           3           3           3           3
Shell to atom map                          I   N=           6
           1           1           2           3           4           4
Primitive exponents                        R   N=          18
  7.16168373E+01  1.30450963E+01  3.53051216E+00  2.94124936E+00  6.83483096E-01
  2.22289916E-01  3.42525091E+00  6.23913730E-01  1.68855404E-01  3.42525091E+00
  6.23913730E-01  1.68855404E-01  1.30709321E+02  2.38088661E+01  6.44360831E+00
  5.03315132E+00  1.16959612E+00  3.80388960E-01
Contraction coefficients                   R   N=          18
  1.54328967E-01  5.35328142E-01  4.44634542E-01 -9.99672292E-02  3.99512826E-01
  7.00115469E-01  1.54328967E-01  5.35328142E-01  4.44634542E-01  1.54328967E-01
  5.35328142E-01  4.44634542E-01  1.54328967E-01  5.35328142E-01  4.44634542E-01
 -9.99672292E-02  3.99512826E-01  7.00115469E-01
P(S=P) Contraction coefficients            R   N=          18
  0.00000000E+00  0.00000000E+00  0.00000000E+00  1.55916275E-01  6.07683719E-01
  3.91957393E-01  0.00000000E+00  0.00000000E+00  0.00000000E+00  0.00000000E+00
  0.00000000E+00  0.00000000E+00  0.00000000E+00  0.00000000E+00  0.00000000E+00
  1.55916275E-01  6.07683719E-01  3.91957393E-01
Coordinates of each shell                  R   N=          18
 -9.86076132E-32  1.01892327E-17 -1.00877655E+00 -9.86076132E-32  1.01892327E-17
 -1.00877655E+00 -1.18329136E-30 -1.75016840E+00 -2.13434225E+00  2.14333813E-16
  1.75016840E+00 -2.13434225E+00  2.46519033E-31  5.52166566E-18  1.29016798E+00
  2.46519033E-31  5.52166566E-18  1.29016798E+00
Num ILSW                                   I              100
ILSW                                       I   N=         100
           0           0           0           0           2           0
           0           0           0           0           0          -1
           5           0           0           0           0           0
           0           0           1           0           0           0
           1           0           0           0           0           0
           0           0      100000           0          -1           0
           0           0           0           0           0           0
           0           0           0           1           0           0
           0 -2000000000           1           0           0           0
           0           0           4          52           0           0
           0           0           0           0           0           0
           0           0           0           0           0           1
           0           0           0           0           0           0
           0           0           0           0           0           0
           0           0           0           0           0           0
           0           0           0           0           0           0
           0           0           0           0
Num RLSW                                   I               52
RLSW                                       R   N=          52
  1.00000000E+00  1.00000000E+00  1.00000000E+00  1.00000000E+00  1.00000000E+00
  0.00000000E+00  0.00000000E+00  1.00000000E+00  0.00000000E+00  0.00000000E+00
  0.00000000E+00  0.00000000E+00  1.00000000E+00  0.00000000E+00  0.00000000E+00
  0.00000000E+00  0.00000000E+00  1.00000000E+00  0.00000000E+00  0.00000000E+00
  0.00000000E+00  0.00000000E+00  1.00000000E+00  0.00000000E+00  0.00000000E+00
  0.00000000E+00  0.00000000E+00  1.00000000E+00  0.00000000E+00  0.00000000E+00
  0.00000000E+00  0.00000000E+00  1.00000000E+00  0.00000000E+00  0.00000000E+00
  0.00000000E+00  0.00000000E+00  0.00000000E+00  1.00000000E+00  1.00000000E+00
  0.00000000E+00  1.00000000E+00  0.00000000E+00  0.00000000E+00  0.00000000E+00
  0.00000000E+00  0.00000000E+00  0.00000000E+00  0.00000000E+00  0.00000000E+00
  0.00000000E+00  0.00000000E+00
MxBond                                     I                3
NBond                                      I   N=           4
           3           1           1           1
IBond                                      I   N=          12
           2           3           4           1           0           0
           1           0           0           1           0           0
RBond                                      R   N=          12
  1.00000000E+00  1.00000000E+00  2.00000000E+00  1.00000000E+00  0.00000000E+00
  0.00000000E+00  1.00000000E+00  0.00000000E+00  0.00000000E+00  2.00000000E+00
  0.00000000E+00  0.00000000E+00
Virial Ratio                               R      2.008923287552320E+00
SCF Energy                                 R     -1.123543469756760E+02
CIS Energy                                 R     -1.122033592983953E+02
Total Energy                               R     -1.122033592983953E+02
Post-SCF wavefunction norm                 R      1.000000000000000E+00
RMS Density                                R      9.255949861186046E-09
Job Status                                 I                1
Nuclear derivative order                   I                0
External E-field                           R   N=          35
  0.00000000E+00  0.00000000E+00  0.00000000E+00  0.00000000E+00  0.00000000E+00
  0.00000000E+00  0.00000000E+00  0.00000000E+00  0.00000000E+00  0.00000000E+00
  0.00000000E+00  0.00000000E+00  0.00000000E+00  0.00000000E+00  0.00000000E+00
  0.00000000E+00  0.00000000E+00  0.00000000E+00  0.00000000E+00  0.00000000E+00
  0.00000000E+00  0.00000000E+00  0.00000000E+00  0.00000000E+00  0.00000000E+00
  0.00000000E+00  0.00000000E+00  0.00000000E+00  0.00000000E+00  0.00000000E+00
  0.00000000E+00  0.00000000E+00  0.00000000E+00  0.00000000E+00  0.00000000E+00
IOpCl                                      I                0
IROHF                                      I                0
Alpha Orbital Energies                     R   N=          12
 -2.03127722E+01 -1.11251046E+01 -1.33757097E+00 -8.07843488E-01 -6.33012822E-01
 -5.45615078E-01 -4.43302139E-01 -3.54395414E-01  2.82032385E-01  6.28944424E-01
  7.34582147E-01  9.13200191E-01
Alpha MO coefficients                      R   N=         144
  5.25080418E-04 -7.18206256E-03  0.00000000E+00  0.00000000E+00 -6.29680046E-03
  1.91241520E-04  1.91241520E-04  9.94287745E-01  2.59359641E-02  0.00000000E+00
  0.00000000E+00 -5.62292300E-03  9.92624659E-01  3.29015079E-02  0.00000000E+00
  0.00000000E+00  5.16267435E-04 -6.51200007E-03 -6.51200007E-03  1.29722828E-04
 -5.71157799E-03  0.00000000E+00  0.00000000E+00  1.63858482E-03 -1.22566202E-01
  2.77144116E-01  0.00000000E+00  0.00000000E+00  1.57759156E-01  3.17595721E-02
  3.17595721E-02 -2.19359213E-01  7.68913107E-01  0.00000000E+00  0.00000000E+00
 -1.70248919E-01 -1.85608137E-01  5.77295819E-01  0.00000000E+00  0.00000000E+00
 -2.26361050E-01  2.64565972E-01  2.64565972E-01  9.88267510E-02 -4.29050673E-01
  0.00000000E+00  0.00000000E+00 -1.64569642E-01  0.00000000E+00  0.00000000E+00
  0.00000000E+00  5.33202637E-01  0.00000000E+00 -3.00173523E-01  3.00173523E-01
  0.00000000E+00  0.00000000E+00  0.00000000E+00  4.42339025E-01  0.00000000E+00
  3.30394526E-02 -1.06752909E-01  0.00000000E+00  0.00000000E+00 -4.47431835E-01
  1.58871662E-01  1.58871662E-01 -9.38309785E-02  4.99237983E-01  0.00000000E+00
  0.00000000E+00  6.76932302E-01  0.00000000E+00  0.00000000E+00  6.09354583E-01
  0.00000000E+00  0.00000000E+00  0.00000000E+00  0.00000000E+00  0.00000000E+00
  0.00000000E+00  6.75828702E-01  0.00000000E+00  0.00000000E+00  0.00000000E+00
  0.00000000E+00  0.00000000E+00 -1.82113049E-01  0.00000000E+00  3.59271441E-01
 -3.59271441E-01  0.00000000E+00  0.00000000E+00  0.00000000E+00  8.69884764E-01
  0.00000000E+00  0.00000000E+00  0.00000000E+00  8.21129356E-01  0.00000000E+00
  0.00000000E+00  0.00000000E+00  0.00000000E+00  0.00000000E+00  0.00000000E+00
 -7.67347374E-01  0.00000000E+00  0.00000000E+00 -2.08056657E-01  1.30357976E+00
  0.00000000E+00  0.00000000E+00 -4.44965228E-01 -8.89461512E-01 -8.89461512E-01
  2.81281753E-02 -1.61648252E-01  0.00000000E+00  0.00000000E+00  2.46213600E-01
  0.00000000E+00  0.00000000E+00  0.00000000E+00  1.14852753E+00  0.00000000E+00
  8.40035868E-01 -8.40035868E-01  0.00000000E+00  0.00000000E+00  0.00000000E+00
 -3.18703451E-01  0.00000000E+00 -9.47439911E-02  6.31644151E-01  0.00000000E+00
  0.00000000E+00  1.17345952E+00  1.54939315E-01  1.54939315E-01  1.15790953E-01
 -8.64197327E-01  0.00000000E+00  0.00000000E+00  9.23986520E-01
Orthonormal basis                          R   N=         144
  1.61796004E-01  4.51905218E-01  0.00000000E+00  0.00000000E+00  2.15372807E-02
  2.87613917E-01  2.87613917E-01  7.22389243E-02  2.28795798E-01  0.00000000E+00
  0.00000000E+00 -1.95241475E-01 -1.63290659E-02 -3.23221818E-02  0.00000000E+00
  0.00000000E+00  5.43022346E-01 -2.27207715E-01 -2.27207715E-01  1.82489425E-01
  3.69638036E-01  0.00000000E+00  0.00000000E+00 -1.97166345E-01 -1.92400216E-01
 -4.78959409E-02  0.00000000E+00  0.00000000E+00 -1.79774119E-01  7.59514388E-02
  7.59514388E-02  5.84927833E-01  3.62869515E-01  0.00000000E+00  0.00000000E+00
  5.75293246E-01  9.57207926E-01 -3.57670796E-02  0.00000000E+00  0.00000000E+00
 -3.56222631E-02 -1.58882757E-01 -1.58882757E-01  6.95361669E-02  7.28272003E-03
  0.00000000E+00  0.00000000E+00  2.72675520E-01  7.69123087E-02 -9.36063601E-02
  0.00000000E+00  0.00000000E+00 -1.74782389E-01 -3.62274661E-02 -3.62274661E-02
  7.93894508E-01 -4.71044916E-01  0.00000000E+00  0.00000000E+00 -5.37198845E-01
  1.27861955E-01 -4.97646780E-01  0.00000000E+00  0.00000000E+00  1.12970975E+00
  7.07883813E-01  7.07883813E-01  1.45072632E-01 -6.64621391E-01  0.00000000E+00
  0.00000000E+00  4.39153798E-01 -2.93528228E-01  1.43375496E+00  0.00000000E+00
  0.00000000E+00  4.64376947E-01 -4.93624411E-01 -4.93624411E-01  1.80790099E-01
 -9.02170084E-01  0.00000000E+00  0.00000000E+00  6.81883432E-01  0.00000000E+00
  0.00000000E+00  6.43154060E-01  0.00000000E+00  0.00000000E+00  0.00000000E+00
  0.00000000E+00  0.00000000E+00  0.00000000E+00  6.43154060E-01  0.00000000E+00
  0.00000000E+00  0.00000000E+00  0.00000000E+00  7.94933508E-01  0.00000000E+00
  0.00000000E+00  0.00000000E+00  0.00000000E+00  0.00000000E+00  0.00000000E+00
 -7.94933508E-01  0.00000000E+00  0.00000000E+00  0.00000000E+00  0.00000000E+00
  0.00000000E+00  5.85632362E-01  0.00000000E+00 -3.40132332E-01  3.40132332E-01
  0.00000000E+00  0.00000000E+00  0.00000000E+00  2.67567643E-01  0.00000000E+00
  0.00000000E+00  0.00000000E+00  0.00000000E+00 -1.50716794E-01  0.00000000E+00
  2.45633989E-01 -2.45633989E-01  0.00000000E+00  0.00000000E+00  0.00000000E+00
  9.54378307E-01  0.00000000E+00  0.00000000E+00  0.00000000E+00  0.00000000E+00
  1.12734417E+00  0.00000000E+00  8.65340576E-01 -8.65340576E-01  0.00000000E+00
  0.00000000E+00  0.00000000E+00 -2.67403832E-01  0.00000000E+00
Total SCF Density                          R   N=          78
  2.07173690E+00 -2.23982568E-01  8.45219197E-01  1.34675711E-33  0.00000000E+00
  7.42626016E-01 -2.95355999E-19  1.37503099E-18  2.46133847E-31  6.34940430E-01
  1.68095258E-02 -7.82568120E-02  4.42835908E-32 -1.61603793E-17  5.52724879E-01
 -1.08426172E-01  2.88718335E-01 -1.41748444E-31 -4.50962663E-01 -2.51931746E-01
  6.30933167E-01 -1.08426172E-01  2.88718335E-01  1.01689101E-31  4.50962663E-01
 -2.51931746E-01 -2.45787282E-01  6.30933167E-01  1.21873989E-02 -1.72376791E-03
 -3.40572500E-33  7.46906255E-19 -4.25084982E-02  8.92332304E-03  8.92332304E-03
  2.11059516E+00 -7.53749617E-03 -1.76517433E-01 -8.20060522E-34  1.79846679E-19
 -1.02355713E-02 -1.94698703E-02 -1.94698703E-02 -4.64253553E-01  2.05051141E+00
  1.20820978E-32  0.00000000E+00  8.23638634E-01  2.68089448E-31  9.13691698E-32
  1.06311333E-31 -8.78224055E-32 -7.69556404E-33  0.00000000E+00  9.13488869E-01
 -2.64971318E-18  7.53289914E-18  1.20178029E-31  1.54877937E-01  8.70419414E-18
  3.59492577E-01 -3.59492577E-01  1.68770670E-18 -9.75166910E-18  6.10134606E-31
  1.90472663E+00  1.50802496E-01 -4.28718098E-01 -4.68615760E-32  8.70419414E-18
 -5.84901956E-01  1.17174108E-01  1.17174108E-01 -9.60520505E-02  5.54994426E-01
  8.24164103E-32 -3.74194655E-17  1.02867901E+00
Total CI Rho(1) Density                    R   N=          78
  2.07173690E+00 -2.23982568E-01  8.45219197E-01 -1.08395323E-15  6.85270835E-15
  1.42392905E+00  6.81307201E-19 -1.19237561E-18  5.12991145E-15  6.33574990E-01
  1.68095258E-02 -7.82568120E-02 -1.03643678E-16 -2.95028585E-17  5.52724879E-01
 -1.08426172E-01  2.88718335E-01  4.97009263E-17 -4.26938124E-01 -2.51931746E-01
  5.46732292E-01 -1.08426172E-01  2.88718335E-01 -7.51531983E-15  4.26938124E-01
 -2.51931746E-01 -1.61586407E-01  5.46732292E-01  1.21873989E-02 -1.72376791E-03
  3.12277076E-16 -1.18822751E-18 -4.25084982E-02  8.92332304E-03  8.92332304E-03
  2.11059516E+00 -7.53749617E-03 -1.76517433E-01 -2.11448610E-15  1.16513403E-17
 -1.02355713E-02 -1.94698703E-02 -1.94698703E-02 -4.64253553E-01  2.05051141E+00
  1.01295692E-15 -6.40387257E-15  1.84741812E-01 -4.83181529E-15  9.68552688E-17
 -1.18765853E-17  6.98851555E-15 -2.91823684E-16  1.97599239E-15  1.50808010E+00
 -1.71403901E-17  5.06285398E-17 -1.41827638E-15  2.22113455E-01  1.66153316E-16
  8.07459291E-02 -8.07459291E-02  2.64157526E-17 -1.54009091E-16  1.34655962E-15
  1.00927018E+00  1.50802496E-01 -4.28718098E-01  2.58930949E-15  2.56420766E-17
 -5.84901956E-01  1.17174108E-01  1.17174108E-01 -9.60520505E-02  5.54994426E-01
 -2.41971600E-15 -2.71368842E-16  1.02867901E+00
Total CI Density                           R   N=          78
  2.06589953E+00 -1.98037770E-01  7.51494917E-01 -1.13463185E-15  7.28126690E-15
  1.30223212E+00  1.50178537E-18  4.63301407E-18  5.95272884E-15  6.09678048E-01
  2.49799115E-02 -1.14265460E-01 -2.07608147E-16 -4.99168263E-17  4.31443918E-01
 -1.16653571E-01  3.10776581E-01  8.48384246E-17 -4.23751000E-01 -2.36796386E-01
  5.85584593E-01 -1.16653571E-01  3.10776581E-01 -8.91173232E-15  4.23751000E-01
 -2.36796386E-01 -1.57625706E-01  5.85584593E-01  1.32125458E-02 -3.60575815E-03
  2.77320243E-16 -2.73850600E-18 -4.71515207E-02  1.08113466E-02  1.08113466E-02
  2.11084402E+00 -1.76004218E-02 -1.44699070E-01 -1.98582110E-15  2.27804475E-17
  4.63423736E-02 -3.50836441E-02 -3.50836441E-02 -4.63608212E-01  2.02747803E+00
  8.36025536E-16 -5.40604927E-15  1.74118463E-01 -3.73993340E-15 -4.90027704E-16
  2.74979977E-16  5.89116176E-15 -2.44111542E-16  1.79932212E-15  1.63421249E+00
 -5.06641229E-18 -2.97338926E-17 -1.74215386E-15  2.36193436E-01  1.37695320E-16
  8.53096438E-02 -8.53096438E-02  2.06602833E-17 -1.12820398E-16  1.13287100E-15
  1.00329618E+00  1.49930667E-01 -3.83858124E-01  2.57685199E-15  3.09662868E-17
 -5.58116825E-01  1.26389745E-01  1.26389745E-01 -8.65487677E-02  5.04960812E-01
 -2.26372818E-15 -3.23057730E-16  1.16523791E+00
Number of excited states                   I                2
Excited state NLR                          I                1
Number of ex state dens                    I                2
Number of g2e trans dens                   I                2
Number of e2e trans dens                   I                0
Excited state spins                        I   N=           2
           0           0
Excited state densities                    R   N=         312
  1.03586845E+00 -1.11991284E-01  4.22609599E-01 -5.41976617E-16  3.42635418E-15
  7.11964523E-01  3.40653601E-19 -5.96187803E-19  2.56495573E-15  3.16787495E-01
  8.40476289E-03 -3.91284060E-02 -5.18218392E-17 -1.47514292E-17  2.76362439E-01
 -5.42130860E-02  1.44359168E-01  2.48504632E-17 -2.13469062E-01 -1.25965873E-01
  2.73366146E-01 -5.42130860E-02  1.44359168E-01 -3.75765991E-15  2.13469062E-01
 -1.25965873E-01 -8.07932034E-02  2.73366146E-01  6.09369945E-03 -8.61883955E-04
  1.56138538E-16 -5.94113753E-19 -2.12542491E-02  4.46166152E-03  4.46166152E-03
  1.05529758E+00 -3.76874809E-03 -8.82587164E-02 -1.05724305E-15  5.82567014E-18
 -5.11778566E-03 -9.73493513E-03 -9.73493513E-03 -2.32126776E-01  1.02525571E+00
  5.06478462E-16 -3.20193629E-15  9.23709060E-02 -2.41590765E-15  4.84276344E-17
 -5.93829264E-18  3.49425778E-15 -1.45911842E-16  9.87996195E-16  7.54040052E-01
 -8.57019504E-18  2.53142699E-17 -7.09138191E-16  1.11056728E-01  8.30766579E-17
  4.03729645E-02 -4.03729645E-02  1.32078763E-17 -7.70045457E-17  6.73279811E-16
  5.04635092E-01  7.54012481E-02 -2.14359049E-01  1.29465474E-15  1.28210383E-17
 -2.92450978E-01  5.85870538E-02  5.85870538E-02 -4.80260253E-02  2.77497213E-01
 -1.20985800E-15 -1.35684421E-16  5.14339505E-01  1.03586845E+00 -1.11991284E-01
  4.22609599E-01 -5.41976617E-16  3.42635418E-15  7.11964523E-01  3.40653601E-19
 -5.96187803E-19  2.56495573E-15  3.16787495E-01  8.40476289E-03 -3.91284060E-02
 -5.18218392E-17 -1.47514292E-17  2.76362439E-01 -5.42130860E-02  1.44359168E-01
  2.48504632E-17 -2.13469062E-01 -1.25965873E-01  2.73366146E-01 -5.42130860E-02
  1.44359168E-01 -3.75765991E-15  2.13469062E-01 -1.25965873E-01 -8.07932034E-02
  2.73366146E-01  6.09369945E-03 -8.61883955E-04  1.56138538E-16 -5.94113753E-19
 -2.12542491E-02  4.46166152E-03  4.46166152E-03  1.05529758E+00 -3.76874809E-03
 -8.82587164E-02 -1.05724305E-15  5.82567014E-18 -5.11778566E-03 -9.73493513E-03
 -9.73493513E-03 -2.32126776E-01  1.02525571E+00  5.06478462E-16 -3.20193629E-15
  9.23709060E-02 -2.41590765E-15  4.84276344E-17 -5.93829264E-18  3.49425778E-15
 -1.45911842E-16  9.87996195E-16  7.54040052E-01 -8.57019504E-18  2.53142699E-17
 -7.09138191E-16  1.11056728E-01  8.30766579E-17  4.03729645E-02 -4.03729645E-02
  1.32078763E-17 -7.70045457E-17  6.73279811E-16  5.04635092E-01  7.54012481E-02
 -2.14359049E-01  1.29465474E-15  1.28210383E-17 -2.92450978E-01  5.85870538E-02
  5.85870538E-02 -4.80260253E-02  2.77497213E-01 -1.20985800E-15 -1.35684421E-16
  5.14339505E-01  1.03457851E+00 -1.08377149E-01  4.13493455E-01  1.71269665E-19
 -5.49134811E-19  7.11070299E-01  8.88086914E-18 -6.58453723E-17  1.28800772E-31
  3.17470215E-01  1.96247357E-02 -7.08699406E-02 -1.46850740E-18 -7.30237962E-17
  1.78774676E-01 -5.79558251E-02  1.55535135E-01  4.51286886E-19 -2.25481332E-01
 -9.35868151E-02  3.05065635E-01 -5.79558251E-02  1.55535135E-01  4.51286886E-19
  2.25481332E-01 -9.35868151E-02 -1.33294589E-01  3.05065635E-01  8.09660259E-03
 -6.66372612E-03 -2.52215297E-19 -5.89137685E-18 -3.85970022E-02  1.01353118E-02
  1.01353118E-02  1.05221849E+00 -1.50889315E-02 -5.58741504E-02  1.45445196E-18
  5.17911816E-17  9.30835991E-02 -4.21016926E-02 -4.21016926E-02 -2.14661485E-01
  9.26314523E-01  1.70410596E-19 -4.81500797E-19  9.12803889E-02  1.13270277E-31
 -1.48617511E-18  4.91979374E-19  4.91979374E-19 -2.63292800E-19  1.49203467E-18
  7.52922847E-01 -5.18425409E-18  2.64358886E-17  9.36955793E-32  7.74389687E-02
  3.28752273E-17  1.79746289E-01 -1.79746289E-01  4.87936776E-18 -3.16066240E-17
  3.49869311E-31  9.52363315E-01  5.65724987E-02 -1.55792884E-01  2.10291485E-18
 -1.00962162E-16 -1.30407396E-01  7.91401382E-03  7.91401382E-03 -1.98918979E-02
  1.16125358E-01  2.46419681E-18 -6.48795005E-18  2.72946008E-01  1.03457851E+00
 -1.08377149E-01  4.13493455E-01  1.71269665E-19 -5.49134811E-19  7.11070299E-01
  8.88086914E-18 -6.58453723E-17  1.28800772E-31  3.17470215E-01  1.96247357E-02
 -7.08699406E-02 -1.46850740E-18 -7.30237962E-17  1.78774676E-01 -5.79558251E-02
  1.55535135E-01  4.51286886E-19 -2.25481332E-01 -9.35868151E-02  3.05065635E-01
 -5.79558251E-02  1.55535135E-01  4.51286886E-19  2.25481332E-01 -9.35868151E-02
 -1.33294589E-01  3.05065635E-01  8.09660259E-03 -6.66372612E-03 -2.52215297E-19
 -5.89137685E-18 -3.85970022E-02  1.01353118E-02  1.01353118E-02  1.05221849E+00
 -1.50889315E-02 -5.58741504E-02  1.45445196E-18  5.17911816E-17  9.30835991E-02
 -4.21016926E-02 -4.21016926E-02 -2.14661485E-01  9.26314523E-01  1.70410596E-19
 -4.81500797E-19  9.12803889E-02  1.13270277E-31 -1.48617511E-18  4.91979374E-19
  4.91979374E-19 -2.63292800E-19  1.49203467E-18  7.52922847E-01 -5.18425409E-18
  2.64358886E-17  9.36955793E-32  7.74389687E-02  3.28752273E-17  1.79746289E-01
 -1.79746289E-01  4.87936776E-18 -3.16066240E-17  3.49869311E-31  9.52363315E-01
  5.65724987E-02 -1.55792884E-01  2.10291485E-18 -1.00962162E-16 -1.30407396E-01
  7.91401382E-03  7.91401382E-03 -1.98918979E-02  1.16125358E-01  2.46419681E-18
 -6.48795005E-18  2.72946008E-01
G to E trans densities                     R   N=         576
  0.00000000E+00  0.00000000E+00  1.16156664E-17 -1.52661958E-16  0.00000000E+00
  3.01170520E-16 -3.01170520E-16  0.00000000E+00  0.00000000E+00 -1.22861424E-17
  7.29208104E-16  0.00000000E+00  0.00000000E+00  0.00000000E+00 -3.26916751E-17
  9.65122701E-16  0.00000000E+00 -1.90398780E-15  1.90398780E-15  0.00000000E+00
  0.00000000E+00  3.87365102E-17 -4.61002404E-15  0.00000000E+00 -1.45843494E-18
 -5.76215761E-18 -1.26452774E-16 -4.11663455E-03  5.51267592E-17 -1.84262777E-02
  1.84262777E-02  8.09024405E-18 -4.54375896E-17 -3.17292195E-16 -5.21305580E-02
 -8.77555840E-17  2.34310975E-16 -1.48130448E-15 -2.18681158E-02 -3.39369116E-16
  2.24039660E-17 -1.53798025E-15  3.15177353E-15 -6.75028625E-17  4.57074425E-16
  9.69601738E-02 -3.39416868E-15 -5.59713844E-16  0.00000000E+00  0.00000000E+00
 -1.48128292E-16 -1.45969829E-17  0.00000000E+00  2.87968332E-17 -2.87968332E-17
  0.00000000E+00  0.00000000E+00  1.07080428E-16  6.97242353E-17  0.00000000E+00
 -4.62247172E-16  2.92230786E-15  2.68123591E-01  2.24044473E-15 -4.41983987E-17
 -6.50218731E-17 -3.11865904E-15  1.33169209E-16 -9.01713460E-16 -1.94592035E-01
 -8.07786682E-16  1.10419984E-15  4.62247172E-16 -2.92230786E-15 -2.68123591E-01
 -3.29188861E-15  4.41983987E-17  2.13930354E-15  1.04437737E-15 -1.33169209E-16
  9.01713460E-16  1.94592035E-01  5.83013417E-15 -1.10419984E-15  0.00000000E+00
  0.00000000E+00 -2.18076607E-17  4.39805226E-17  0.00000000E+00 -8.67644897E-17
  8.67644897E-17  0.00000000E+00  0.00000000E+00  1.84560654E-17 -2.10078228E-16
  0.00000000E+00  0.00000000E+00  0.00000000E+00  1.29162290E-16 -2.97800290E-16
  0.00000000E+00  5.87498481E-16 -5.87498481E-16  0.00000000E+00  0.00000000E+00
 -1.05564361E-16  1.42247871E-15  0.00000000E+00  7.65634400E-18 -3.43777425E-17
  2.95215189E-16 -7.18844414E-03 -5.00336672E-17  9.14804644E-03 -9.14804644E-03
 -9.30752708E-18  5.42322853E-17  1.31061563E-16  5.17783457E-02  6.74938524E-17
 -1.11921440E-15  7.07562804E-15  7.64908215E-01  5.10937697E-15 -1.07015224E-16
  4.64572542E-16 -8.17304921E-15  3.22435498E-16 -2.18327067E-15 -7.36043232E-01
 -4.49819559E-16  2.67354014E-15  0.00000000E+00  0.00000000E+00  1.90696183E-16
  3.64673533E-16  0.00000000E+00 -7.19425581E-16  7.19425581E-16  0.00000000E+00
  0.00000000E+00 -1.93199815E-16 -1.74190676E-15  0.00000000E+00  0.00000000E+00
  0.00000000E+00  1.16156664E-17 -1.52661958E-16  0.00000000E+00  3.01170520E-16
 -3.01170520E-16  0.00000000E+00  0.00000000E+00 -1.22861424E-17  7.29208104E-16
  0.00000000E+00  0.00000000E+00  0.00000000E+00 -3.26916751E-17  9.65122701E-16
  0.00000000E+00 -1.90398780E-15  1.90398780E-15  0.00000000E+00  0.00000000E+00
  3.87365102E-17 -4.61002404E-15  0.00000000E+00 -1.45843494E-18 -5.76215761E-18
 -1.26452774E-16 -4.11663455E-03  5.51267592E-17 -1.84262777E-02  1.84262777E-02
  8.09024405E-18 -4.54375896E-17 -3.17292195E-16 -5.21305580E-02 -8.77555840E-17
  2.34310975E-16 -1.48130448E-15 -2.18681158E-02 -3.39369116E-16  2.24039660E-17
 -1.53798025E-15  3.15177353E-15 -6.75028625E-17  4.57074425E-16  9.69601738E-02
 -3.39416868E-15 -5.59713844E-16  0.00000000E+00  0.00000000E+00 -1.48128292E-16
 -1.45969829E-17  0.00000000E+00  2.87968332E-17 -2.87968332E-17  0.00000000E+00
  0.00000000E+00  1.07080428E-16  6.97242353E-17  0.00000000E+00 -4.62247172E-16
  2.92230786E-15  2.68123591E-01  2.24044473E-15 -4.41983987E-17 -6.50218731E-17