Ground state optimization and frequency calculation for formaldehyde    
Freq      RCAM-B3LYP                                                  TZVP                
Number of atoms                            I                4
Info1-9                                    I   N=           9
          16          16        1002           0           0         100
           6          18        4002
Full Title                                 C   N=           6
Ground state optimization and frequency calculation for form
aldehyde    
Route                                      C   N=           4
# CAM-B3LYP/TZVP geom=connectivity Opt Freq     
Charge                                     I                0
Multiplicity                               I                1
Number of electrons                        I               16
Number of alpha electrons                  I                8
Number of beta electrons                   I                8
Number of basis functions                  I               50
Number of independent functions            I               50
Number of point charges in /Mol/           I                0
Number of translation vectors              I                0
Atomic numbers                             I   N=           4
           6           1           1           8
Nuclear charges                            R   N=           4
  6.00000000E+00  1.00000000E+00  1.00000000E+00  8.00000000E+00
Current cartesian coordinates              R   N=          12
 -9.86076132E-32  1.75680195E-16 -9.92859911E-01 -7.88860905E-31 -1.77342295E+00
 -2.09592201E+00  2.17181674E-16  1.77342295E+00 -2.09592201E+00 -1.47911420E-31
 -3.41224200E-17  1.26862544E+00
Number of symbols in /Mol/                 I                0
Int Atom Types                             I   N=           4
           0           0           0           0
Force Field                                I                0
Atom Types                                 C   N=           4
                                                
MM charges                                 R   N=           4
  0.00000000E+00  0.00000000E+00  0.00000000E+00  0.00000000E+00
Integer atomic weights                     I   N=           4
          12           1           1          16
Real atomic weights                        R   N=           4
  1.20000000E+01  1.00782504E+00  1.00782504E+00  1.59949146E+01
Atom fragment info                         I   N=           4
           0           0           0           0
Atom residue num                           I   N=           4
           0           0           0           0
Nuclear spins                              I   N=           4
           0           1           1           0
Nuclear ZEff                               R   N=           4
 -3.60000000E+00 -1.00000000E+00 -1.00000000E+00 -5.60000000E+00
Nuclear ZNuc                               R   N=           4
  6.00000000E+00  1.00000000E+00  1.00000000E+00  8.00000000E+00
Nuclear QMom                               R   N=           4
  0.00000000E+00  0.00000000E+00  0.00000000E+00  0.00000000E+00
Nuclear GFac                               R   N=           4
  0.00000000E+00  2.79284600E+00  2.79284600E+00  0.00000000E+00
MicOpt                                     I   N=           4
          -1          -1          -1          -1
Number of residues                         I                0
Number of secondary structures             I                0
Redundant internal dimensions              I   N=           4
           7           3           3           1
Redundant internal coordinate indices      I   N=          28
           1           2           0           0           1           3
           0           0           1           4           0           0
           2           1           3           0           2           1
           4           0           3           1           4           0
           2           1           4           3
Redundant internal coordinates             R   N=           7
  2.08848628E+00  2.08848628E+00  2.26148535E+00  2.02872012E+00  2.12723259E+00
  2.12723259E+00  3.14159265E+00
ZRed-IntVec                                I   N=           7
           0           0           0           0           0           0
           0
ZRed-FPVec                                 R   N=           7
  0.00000000E+00  0.00000000E+00  0.00000000E+00  0.00000000E+00  0.00000000E+00
  0.00000000E+00  0.00000000E+00
ZRed-Constraint1                           R   N=           7
  2.08848628E+00  2.08848628E+00  2.26148535E+00  2.02872012E+00  2.12723259E+00
  2.12723259E+00  3.14159265E+00
ZRed-Constraint2                           R   N=           7
  2.02200694E+00  2.02200695E+00  2.37803135E+00  2.09439510E+00  2.09439511E+00
  2.09439510E+00  3.14159265E+00
SymInf integers                            I   N=          26
           2           4           1           1           1          -1
          -1           1          -1           1           1           1
          -1           1           0           0           0           0
           0           0           0           0           0           0
           0           0
RotTr to input orientation                 R   N=          12
  5.87316586E-16 -5.51037710E-16 -1.00000000E+00 -8.66116354E-01  4.99842436E-01
 -7.84116532E-16  4.99842436E-01  8.66116354E-01 -1.83697020E-16 -4.53099170E-01
  1.61182606E-01 -7.14069678E-17
Number of contracted shells                I               26
Number of primitive shells                 I               48
Pure/Cartesian d shells                    I                0
Pure/Cartesian f shells                    I                0
Highest angular momentum                   I                2
Largest degree of contraction              I                6
Shell types                                I   N=          26
           0           0           0           0           0           1
           1           1          -2           0           0           0
           1           0           0           0           1           0
           0           0           0           0           1           1
           1          -2
Number of primitives per shell             I   N=          26
           6           2           1           1           1           4
           1           1           1           3           1           1
           1           3           1           1           1           6
           2           1           1           1           4           1
           1           1
Shell to atom map                          I   N=          26
           1           1           1           1           1           1
           1           1           1           2           2           2
           2           3           3           3           3           4
           4           4           4           4           4           4
           4           4
Primitive exponents                        R   N=          48
  1.35753497E+04  2.03523337E+03  4.63225624E+02  1.31200196E+02  4.28530159E+01
  1.55841858E+01  6.20671385E+00  2.57648965E+00  5.76963390E-01  2.29728310E-01
  9.51644400E-02  3.46972322E+01  7.95826228E+00  2.37808269E+00  8.14332080E-01
  2.88875470E-01  1.00568240E-01  8.00000000E-01  3.40613410E+01  5.12357460E+00
  1.16466260E+00  3.27230410E-01  1.03072410E-01  8.00000000E-01  3.40613410E+01
  5.12357460E+00  1.16466260E+00  3.27230410E-01  1.03072410E-01  8.00000000E-01
  2.70323826E+04  4.05238714E+03  9.22327227E+02  2.61240710E+02  8.53546413E+01
  3.10350352E+01  1.22608607E+01  4.99870760E+00  1.17031082E+00  4.64747410E-01
  1.85045360E-01  6.32749548E+01  1.46270494E+01  4.45012235E+00  1.52757996E+00
  5.29351180E-01  1.74784210E-01  1.20000000E+00
Contraction coefficients                   R   N=          48
  6.06460097E-04  4.69789846E-03  2.43324735E-02  9.73999560E-02  3.01955844E-01
  6.62336101E-01  6.55953080E-01  3.75856339E-01  1.00000000E+00  1.00000000E+00
  1.00000000E+00  1.13272290E-02  7.61696612E-02  3.01922515E-01  7.27850278E-01
  1.00000000E+00  1.00000000E+00  1.00000000E+00  2.54393072E-02  1.90085949E-01
  8.52441130E-01  1.00000000E+00  1.00000000E+00  1.00000000E+00  2.54393072E-02
  1.90085949E-01  8.52441130E-01  1.00000000E+00  1.00000000E+00  1.00000000E+00
  5.72265385E-04  4.43533331E-03  2.30201034E-02  9.28224938E-02  2.93784997E-01
  6.74016046E-01  6.38399375E-01  3.95345866E-01  1.00000000E+00  1.00000000E+00
  1.00000000E+00  1.20183316E-02  8.30054304E-02  3.19917439E-01  7.07155426E-01
  1.00000000E+00  1.00000000E+00  1.00000000E+00
Coordinates of each shell                  R   N=          78
  0.00000000E+00  6.46928793E-17 -9.92859911E-01  0.00000000E+00  6.46928793E-17
 -9.92859911E-01  0.00000000E+00  6.46928793E-17 -9.92859911E-01  0.00000000E+00
  6.46928793E-17 -9.92859911E-01  0.00000000E+00  6.46928793E-17 -9.92859911E-01
  0.00000000E+00  6.46928793E-17 -9.92859911E-01  0.00000000E+00  6.46928793E-17
 -9.92859911E-01  0.00000000E+00  6.46928793E-17 -9.92859911E-01  0.00000000E+00
  6.46928793E-17 -9.92859911E-01 -5.91645679E-31 -1.77342295E+00 -2.09592201E+00
 -5.91645679E-31 -1.77342295E+00 -2.09592201E+00 -5.91645679E-31 -1.77342295E+00
 -2.09592201E+00 -5.91645679E-31 -1.77342295E+00 -2.09592201E+00  2.17181674E-16
  1.77342295E+00 -2.09592201E+00  2.17181674E-16  1.77342295E+00 -2.09592201E+00
  2.17181674E-16  1.77342295E+00 -2.09592201E+00  2.17181674E-16  1.77342295E+00
 -2.09592201E+00 -9.86076132E-32 -3.41224200E-17  1.26862544E+00 -9.86076132E-32
 -3.41224200E-17  1.26862544E+00 -9.86076132E-32 -3.41224200E-17  1.26862544E+00
 -9.86076132E-32 -3.41224200E-17  1.26862544E+00 -9.86076132E-32 -3.41224200E-17
  1.26862544E+00 -9.86076132E-32 -3.41224200E-17  1.26862544E+00 -9.86076132E-32
 -3.41224200E-17  1.26862544E+00 -9.86076132E-32 -3.41224200E-17  1.26862544E+00
 -9.86076132E-32 -3.41224200E-17  1.26862544E+00
Num ILSW                                   I              100
ILSW                                       I   N=         100
           0           0           0           0           2           0
           0           0           0           0       20419          -1
           5           0           0           0           2           0
           0           0           1           0           1           0
           1           0           0           0           0           0
           0           0      100000           0          -1           0
           0           0           0           0           0           0
           0           0           0           1           0           0
           0 -2000000000           1           0           0           0
           0           0           4          52           0           0
           0           0          40           0           0           0
           0           0           0           0           0           1
           0           0           0           0           0           0
           0           0           0           0           0           0
           0           0           0           0           0           0
           0           0           0           0           0           0
           0           0           0           0
Num RLSW                                   I               52
RLSW                                       R   N=          52
  1.00000000E+00  1.00000000E+00  1.00000000E+00  8.10000000E-01  1.00000000E+00
  0.00000000E+00  3.30000000E-01  1.90000000E-01  0.00000000E+00  4.60000000E-01
  0.00000000E+00  3.30000000E-01  1.90000000E-01  0.00000000E+00  4.60000000E-01
  0.00000000E+00  0.00000000E+00  1.00000000E+00  0.00000000E+00  0.00000000E+00
  0.00000000E+00  0.00000000E+00  1.00000000E+00  0.00000000E+00  0.00000000E+00
  0.00000000E+00  0.00000000E+00  1.00000000E+00  0.00000000E+00  0.00000000E+00
  0.00000000E+00  0.00000000E+00  1.00000000E+00  0.00000000E+00  0.00000000E+00
  0.00000000E+00  0.00000000E+00  0.00000000E+00  1.00000000E+00  1.00000000E+00
  0.00000000E+00  1.00000000E+00  0.00000000E+00  0.00000000E+00  0.00000000E+00
  0.00000000E+00  0.00000000E+00  0.00000000E+00  0.00000000E+00  0.00000000E+00
  0.00000000E+00  0.00000000E+00
MxBond                                     I                3
NBond                                      I   N=           4
           3           1           1           1
IBond                                      I   N=          12
           2           3           4           1           0           0
           1           0           0           1           0           0
RBond                                      R   N=          12
  1.00000000E+00  1.00000000E+00  2.00000000E+00  1.00000000E+00  0.00000000E+00
  0.00000000E+00  1.00000000E+00  0.00000000E+00  0.00000000E+00  2.00000000E+00
  0.00000000E+00  0.00000000E+00
Virial Ratio                               R      2.003675304875908E+00
SCF Energy                                 R     -1.144985366728520E+02
Total Energy                               R     -1.144985366728520E+02
RMS Force                                  R      4.086185246478753E-05
RMS Density                                R      9.023332740114875E-10
NImag                                      I                0
Job Status                                 I                1
Nuclear derivative order                   I                2
Thermal Energy                             R     -1.144687197492929E+02
Thermal Enthalpy                           R     -1.144677755644793E+02
Thermal Free Energy                        R     -1.144925773638378E+02
External E-field                           R   N=          35
  0.00000000E+00  0.00000000E+00  0.00000000E+00  0.00000000E+00  0.00000000E+00
  0.00000000E+00  0.00000000E+00  0.00000000E+00  0.00000000E+00  0.00000000E+00
  0.00000000E+00  0.00000000E+00  0.00000000E+00  0.00000000E+00  0.00000000E+00
  0.00000000E+00  0.00000000E+00  0.00000000E+00  0.00000000E+00  0.00000000E+00
  0.00000000E+00  0.00000000E+00  0.00000000E+00  0.00000000E+00  0.00000000E+00
  0.00000000E+00  0.00000000E+00  0.00000000E+00  0.00000000E+00  0.00000000E+00
  0.00000000E+00  0.00000000E+00  0.00000000E+00  0.00000000E+00  0.00000000E+00
IOpCl                                      I                0
IROHF                                      I                0
Alpha Orbital Energies                     R   N=          50
 -1.92213943E+01 -1.03498402E+01 -1.15566674E+00 -7.17202599E-01 -5.78255127E-01
 -5.30939942E-01 -4.78691208E-01 -3.42303409E-01 -1.87673846E-03  9.50640229E-02
  1.49242302E-01  1.54782166E-01  2.44648054E-01  2.50213862E-01  3.01206401E-01
  4.58463507E-01  4.83413707E-01  4.97861919E-01  5.58484316E-01  5.87381116E-01
  6.66877952E-01  7.80454004E-01  1.22537974E+00  1.30562402E+00  1.34135550E+00
  1.34208582E+00  1.37130864E+00  1.54957674E+00  1.70241732E+00  1.76939512E+00
  1.78794107E+00  2.00949928E+00  2.14435136E+00  2.14732970E+00  2.29076959E+00
  2.48405905E+00  2.51210707E+00  2.66166331E+00  2.69730965E+00  2.72478025E+00
  2.76537849E+00  2.86856769E+00  3.02228448E+00  3.04980713E+00  3.24447853E+00
  3.26429444E+00  3.59572924E+00  4.23051969E+00  2.19569680E+01  4.33354175E+01
Alpha MO coefficients                      R   N=        2500
  7.82045193E-06 -8.83769164E-05  7.07791217E-04 -7.61714964E-05 -5.39987726E-03
  0.00000000E+00  0.00000000E+00  5.74738216E-04  0.00000000E+00  0.00000000E+00
  7.03859138E-04  0.00000000E+00  0.00000000E+00 -2.63116828E-03  2.43774564E-04
  0.00000000E+00  0.00000000E+00 -1.47887858E-04  0.00000000E+00  2.60949293E-05
 -2.29216167E-04  4.30941960E-04  0.00000000E+00 -9.34591550E-05 -2.69604119E-04
  2.60949293E-05 -2.29216167E-04  4.30941960E-04  0.00000000E+00  9.34591550E-05
 -2.69604119E-04  4.35268830E-01  6.39517315E-01  3.42428834E-02 -2.23768432E-02
  1.38674923E-02  0.00000000E+00  0.00000000E+00 -1.82417687E-03  0.00000000E+00
  0.00000000E+00  2.34746485E-03  0.00000000E+00  0.00000000E+00 -2.69382538E-03
 -1.70099664E-04  0.00000000E+00  0.00000000E+00 -1.45121636E-06  0.00000000E+00
  4.66948793E-01  6.08578744E-01  3.64253222E-02 -2.32849625E-02  1.05903624E-02
  0.00000000E+00  0.00000000E+00  1.12320132E-03  0.00000000E+00  0.00000000E+00
 -1.17903915E-04  0.00000000E+00  0.00000000E+00 -2.82812398E-03  1.39968498E-03
  0.00000000E+00  0.00000000E+00 -5.82105307E-04  0.00000000E+00 -1.23298010E-04
  7.18054416E-04 -3.43176836E-03  0.00000000E+00 -1.02775363E-03 -4.81915852E-04
 -1.23298010E-04  7.18054416E-04 -3.43176836E-03  0.00000000E+00  1.02775363E-03
 -4.81915852E-04 -9.78400420E-05 -2.77940954E-04  1.66224938E-03 -4.01799611E-03
  5.39616368E-03  0.00000000E+00  0.00000000E+00 -3.98164672E-04  0.00000000E+00
  0.00000000E+00  2.56094609E-03  0.00000000E+00  0.00000000E+00 -3.32992076E-03
 -9.83136998E-04  0.00000000E+00  0.00000000E+00  3.57488554E-05  0.00000000E+00
 -5.72708303E-02 -1.19526714E-01  2.01803776E-01  1.09754535E-01  3.19432531E-02
  0.00000000E+00  0.00000000E+00  1.46825246E-01  0.00000000E+00  0.00000000E+00
  5.46616859E-02  0.00000000E+00  0.00000000E+00  2.97177039E-04  2.46121888E-02
  0.00000000E+00  0.00000000E+00  1.23784943E-03  0.00000000E+00  1.60446112E-02
  1.78667848E-02 -6.44223615E-03  0.00000000E+00  3.67386844E-03  5.12974013E-03
  1.60446112E-02  1.78667848E-02 -6.44223615E-03  0.00000000E+00 -3.67386844E-03
  5.12974013E-03 -9.03709685E-02 -2.12081917E-01  3.11924776E-01  3.92806938E-01
  1.11542751E-01  0.00000000E+00  0.00000000E+00 -1.28193157E-01  0.00000000E+00
  0.00000000E+00 -9.20366702E-02  0.00000000E+00  0.00000000E+00 -1.95381038E-03
  1.72021749E-02  0.00000000E+00  0.00000000E+00  2.66276372E-03  0.00000000E+00
 -7.97254228E-02 -1.69824973E-01  2.85227009E-01  3.10560554E-01  8.06023745E-02
  0.00000000E+00  0.00000000E+00 -1.58495539E-01  0.00000000E+00  0.00000000E+00
 -9.57654074E-02  0.00000000E+00  0.00000000E+00 -3.58937402E-02 -6.02401036E-03
  0.00000000E+00  0.00000000E+00 -1.04984083E-02  0.00000000E+00  1.11873483E-01
  1.39212424E-01  2.48897649E-02  0.00000000E+00  1.76463184E-02  6.69538452E-03
  1.11873483E-01  1.39212424E-01  2.48897649E-02  0.00000000E+00 -1.76463184E-02
  6.69538452E-03  4.09495371E-02  9.71193881E-02 -1.50117172E-01 -2.00202475E-01
 -1.37773817E-01  0.00000000E+00  0.00000000E+00 -7.89170183E-02  0.00000000E+00
  0.00000000E+00 -5.56654671E-02  0.00000000E+00  0.00000000E+00 -2.24053577E-02
  4.77446741E-03  0.00000000E+00  0.00000000E+00 -1.02362676E-03  0.00000000E+00
  0.00000000E+00  0.00000000E+00  0.00000000E+00  0.00000000E+00  0.00000000E+00
  0.00000000E+00  3.23591008E-01  0.00000000E+00  0.00000000E+00  2.33490476E-01
  0.00000000E+00  0.00000000E+00  7.66880749E-02  0.00000000E+00  0.00000000E+00
  0.00000000E+00  2.49994643E-03  0.00000000E+00  0.00000000E+00 -1.17999384E-01
 -1.51574922E-01 -5.19169669E-02  0.00000000E+00 -1.11414291E-02 -1.03634971E-02
  1.17999384E-01  1.51574922E-01  5.19169669E-02  0.00000000E+00 -1.11414291E-02
  1.03634971E-02  0.00000000E+00  0.00000000E+00  0.00000000E+00  0.00000000E+00
  0.00000000E+00  0.00000000E+00  2.23746211E-01  0.00000000E+00  0.00000000E+00
  1.80892332E-01  0.00000000E+00  0.00000000E+00  7.60218936E-02  0.00000000E+00
  0.00000000E+00  0.00000000E+00 -2.08719844E-02  0.00000000E+00  0.00000000E+00
  1.43855579E-02  3.16504589E-02 -6.83239716E-02 -5.36987041E-02  5.51954018E-02
  0.00000000E+00  0.00000000E+00 -2.73489257E-01  0.00000000E+00  0.00000000E+00
 -1.84372605E-01  0.00000000E+00  0.00000000E+00 -2.05860735E-02 -2.18839822E-02
  0.00000000E+00  0.00000000E+00 -6.97337704E-03  0.00000000E+00  5.11777087E-02
  6.76200565E-02  2.96488414E-02  0.00000000E+00  6.95343501E-03 -3.35261978E-03
  5.11777087E-02  6.76200565E-02  2.96488414E-02  0.00000000E+00 -6.95343501E-03
 -3.35261978E-03 -3.73847048E-02 -8.86077935E-02  1.30940568E-01  2.11026812E-01
  2.36313686E-01  0.00000000E+00  0.00000000E+00  3.95412510E-01  0.00000000E+00
  0.00000000E+00  2.76133166E-01  0.00000000E+00  0.00000000E+00  1.41309649E-01
 -2.19729612E-02  0.00000000E+00  0.00000000E+00  1.06204317E-03  0.00000000E+00
  0.00000000E+00  0.00000000E+00  0.00000000E+00  0.00000000E+00  0.00000000E+00
  2.66482376E-01  0.00000000E+00  0.00000000E+00  2.25158888E-01  0.00000000E+00
  0.00000000E+00  9.33075350E-02  0.00000000E+00  0.00000000E+00  0.00000000E+00
  3.45974895E-02  0.00000000E+00  0.00000000E+00  0.00000000E+00  0.00000000E+00
  0.00000000E+00  0.00000000E+00  7.18447834E-03  0.00000000E+00  0.00000000E+00
  0.00000000E+00  0.00000000E+00  0.00000000E+00  7.18447834E-03  0.00000000E+00
  0.00000000E+00  0.00000000E+00  0.00000000E+00  0.00000000E+00  0.00000000E+00
  0.00000000E+00  3.75807278E-01  0.00000000E+00  0.00000000E+00  3.12295263E-01
  0.00000000E+00  0.00000000E+00  1.79379814E-01  0.00000000E+00  0.00000000E+00
  0.00000000E+00 -2.87475241E-02  0.00000000E+00  0.00000000E+00  0.00000000E+00
  0.00000000E+00  0.00000000E+00  0.00000000E+00  0.00000000E+00  0.00000000E+00
  0.00000000E+00 -1.17800055E-01  0.00000000E+00  0.00000000E+00 -6.99847838E-02
  0.00000000E+00  0.00000000E+00  5.65321092E-02  0.00000000E+00  0.00000000E+00
  0.00000000E+00  5.20261569E-02  0.00000000E+00  0.00000000E+00  1.04448958E-01
  2.14317439E-01  2.05569731E-01  0.00000000E+00  6.35741569E-03  4.99424126E-03
 -1.04448958E-01 -2.14317439E-01 -2.05569731E-01  0.00000000E+00  6.35741569E-03
 -4.99424126E-03  0.00000000E+00  0.00000000E+00  0.00000000E+00  0.00000000E+00
  0.00000000E+00  0.00000000E+00  4.26287699E-01  0.00000000E+00  0.00000000E+00
  3.55603460E-01  0.00000000E+00  0.00000000E+00  2.71923407E-01  0.00000000E+00
  0.00000000E+00  0.00000000E+00 -1.32752795E-02  0.00000000E+00  0.00000000E+00
  0.00000000E+00  0.00000000E+00  0.00000000E+00  0.00000000E+00  0.00000000E+00
  3.31157039E-01  0.00000000E+00  0.00000000E+00  3.27132662E-01  0.00000000E+00
  0.00000000E+00  5.81155174E-01  0.00000000E+00  0.00000000E+00  0.00000000E+00
 -3.21649883E-02  0.00000000E+00  0.00000000E+00  0.00000000E+00  0.00000000E+00
  0.00000000E+00  0.00000000E+00  2.53259759E-02  0.00000000E+00  0.00000000E+00
  0.00000000E+00  0.00000000E+00  0.00000000E+00  2.53259759E-02  0.00000000E+00
  0.00000000E+00  0.00000000E+00  0.00000000E+00  0.00000000E+00  0.00000000E+00
  0.00000000E+00 -3.19002410E-01  0.00000000E+00  0.00000000E+00 -2.47406096E-01
  0.00000000E+00  0.00000000E+00 -4.53148216E-01  0.00000000E+00  0.00000000E+00
  0.00000000E+00 -4.77293413E-03  0.00000000E+00  0.00000000E+00  0.00000000E+00
 -4.69096542E-02 -1.00912641E-01  1.69006759E-01  3.87361158E-01  2.16557516E+00
  0.00000000E+00  0.00000000E+00 -1.46951100E-01  0.00000000E+00  0.00000000E+00
 -1.13467035E-01  0.00000000E+00  0.00000000E+00 -7.47093968E-01  6.09211767E-03
  0.00000000E+00  0.00000000E+00  2.34400321E-02  0.00000000E+00 -4.69575313E-02
  9.86103648E-02 -1.88707909E+00  0.00000000E+00  2.72411100E-02  8.48114793E-03
 -4.69575313E-02  9.86103648E-02 -1.88707909E+00  0.00000000E+00 -2.72411100E-02
  8.48114793E-03 -6.49372560E-04 -2.05754886E-03  1.24365145E-02 -4.93189387E-02
  1.58840760E-01  0.00000000E+00  0.00000000E+00  4.77616658E-02  0.00000000E+00
  0.00000000E+00  5.21318952E-02  0.00000000E+00  0.00000000E+00  3.46081146E-03
  5.69603816E-04  0.00000000E+00  0.00000000E+00  3.00333430E-03  0.00000000E+00
  9.79614599E-03  2.05607317E-02 -2.59822735E-02 -2.28187844E-01 -1.84142907E+00
  0.00000000E+00  0.00000000E+00 -1.40912081E-02  0.00000000E+00  0.00000000E+00
 -1.00719797E-01  0.00000000E+00  0.00000000E+00 -1.74798088E+00  5.26335937E-02
  0.00000000E+00  0.00000000E+00  1.84079317E-03  0.00000000E+00  1.36992581E-02
  1.74018633E-02  3.32434562E-02  0.00000000E+00  7.77581067E-03 -1.20411860E-02
  1.36992581E-02  1.74018633E-02  3.32434562E-02  0.00000000E+00 -7.77581067E-03
 -1.20411860E-02 -3.20440579E-02 -8.32630215E-02  2.27112047E-01 -2.41818292E-01
  2.28294175E+00  0.00000000E+00  0.00000000E+00 -5.19744552E-02  0.00000000E+00
  0.00000000E+00 -1.43058871E-02  0.00000000E+00  0.00000000E+00 -5.48711835E-01
  4.89198946E-03  0.00000000E+00  0.00000000E+00  4.88767935E-04  0.00000000E+00
  0.00000000E+00  0.00000000E+00  0.00000000E+00  0.00000000E+00  0.00000000E+00
  0.00000000E+00  2.73377782E-01  0.00000000E+00  0.00000000E+00  2.68089462E-01
  0.00000000E+00  0.00000000E+00  1.42286051E+00  0.00000000E+00  0.00000000E+00
  0.00000000E+00  1.76109910E-02  0.00000000E+00  0.00000000E+00  1.53448025E-02
 -2.28180038E-01  2.34313968E+00  0.00000000E+00 -2.07708749E-02 -2.04010104E-02
 -1.53448025E-02  2.28180038E-01 -2.34313968E+00  0.00000000E+00 -2.07708749E-02
  2.04010104E-02  0.00000000E+00  0.00000000E+00  0.00000000E+00  0.00000000E+00
  0.00000000E+00  0.00000000E+00 -8.61543725E-02  0.00000000E+00  0.00000000E+00
 -3.61972069E-02  0.00000000E+00  0.00000000E+00 -3.27703997E-01  0.00000000E+00
  0.00000000E+00  0.00000000E+00 -1.07708135E-02  0.00000000E+00  0.00000000E+00
  1.48256797E-02  2.04260723E-02  1.85983702E-01 -1.48538445E+00  5.43436346E+00
  0.00000000E+00  0.00000000E+00  9.38402952E-03  0.00000000E+00  0.00000000E+00
  2.00755429E-01  0.00000000E+00  0.00000000E+00 -1.62726348E+00 -1.78018916E-03
  0.00000000E+00  0.00000000E+00  4.76904970E-02  0.00000000E+00 -5.44877631E-02
 -3.70767176E-01 -2.02752626E+00  0.00000000E+00  2.44263394E-02 -6.41191506E-03
 -5.44877631E-02 -3.70767176E-01 -2.02752626E+00  0.00000000E+00 -2.44263394E-02
 -6.41191506E-03  6.47469726E-03  1.63018651E-02 -3.80679527E-02  1.69043929E-02
 -2.51928323E-01  0.00000000E+00  0.00000000E+00 -2.19773907E-02  0.00000000E+00
  0.00000000E+00 -6.36496014E-02  0.00000000E+00  0.00000000E+00  1.94558552E-01
 -4.97143301E-03  0.00000000E+00  0.00000000E+00  8.44203097E-03  0.00000000E+00
  0.00000000E+00  0.00000000E+00  0.00000000E+00  0.00000000E+00  0.00000000E+00
 -3.09905041E-01  0.00000000E+00  0.00000000E+00 -7.91611836E-01  0.00000000E+00
  0.00000000E+00  1.30152898E+00  0.00000000E+00  0.00000000E+00  0.00000000E+00
 -1.07058116E-02  0.00000000E+00  0.00000000E+00  0.00000000E+00  0.00000000E+00
  0.00000000E+00  0.00000000E+00 -2.05675563E-04  0.00000000E+00  0.00000000E+00
  0.00000000E+00  0.00000000E+00  0.00000000E+00 -2.05675563E-04  0.00000000E+00
  0.00000000E+00  0.00000000E+00  0.00000000E+00  0.00000000E+00  0.00000000E+00
  0.00000000E+00  1.57570988E-02  0.00000000E+00  0.00000000E+00  3.91344501E-02
  0.00000000E+00  0.00000000E+00 -6.96908480E-02  0.00000000E+00  0.00000000E+00
  0.00000000E+00  1.46321877E-02  0.00000000E+00  0.00000000E+00  0.00000000E+00
  0.00000000E+00  0.00000000E+00  0.00000000E+00  0.00000000E+00  0.00000000E+00
  0.00000000E+00 -4.85149024E-02  0.00000000E+00  0.00000000E+00 -4.95076865E-01
  0.00000000E+00  0.00000000E+00  3.94416153E+00  0.00000000E+00  0.00000000E+00
  0.00000000E+00  2.00219717E-02  0.00000000E+00  0.00000000E+00  1.99728193E-02
  1.86271777E-01  2.70138968E+00  0.00000000E+00 -1.21125683E-02 -2.98090121E-02
 -1.99728193E-02 -1.86271777E-01 -2.70138968E+00  0.00000000E+00 -1.21125683E-02
  2.98090121E-02  0.00000000E+00  0.00000000E+00  0.00000000E+00  0.00000000E+00
  0.00000000E+00  0.00000000E+00 -1.76448581E-01  0.00000000E+00  0.00000000E+00
 -1.25713111E-01  0.00000000E+00  0.00000000E+00 -5.82323605E-01  0.00000000E+00
  0.00000000E+00  0.00000000E+00  4.14225032E-03  0.00000000E+00  0.00000000E+00
 -5.53733363E-02 -1.14282393E-01 -4.83225487E-02  2.91767585E+00 -2.89306869E+00
  0.00000000E+00  0.00000000E+00  1.49151226E-02  0.00000000E+00  0.00000000E+00
  1.92540682E-01  0.00000000E+00  0.00000000E+00  4.95833082E-01  1.97192896E-03
  0.00000000E+00  0.00000000E+00 -1.10948993E-03  0.00000000E+00 -5.69977920E-02
 -7.82246867E-01  1.59389458E+00  0.00000000E+00 -4.50670341E-03 -2.88167297E-02
 -5.69977920E-02 -7.82246867E-01  1.59389458E+00  0.00000000E+00  4.50670341E-03
 -2.88167297E-02  2.46857589E-02  5.68201954E-02 -5.50697815E-02 -3.17103010E-01
 -6.29634159E-01  0.00000000E+00  0.00000000E+00 -3.74270682E-02  0.00000000E+00
  0.00000000E+00 -2.02837327E-01  0.00000000E+00  0.00000000E+00  1.66423369E+00
  2.30344610E-02  0.00000000E+00  0.00000000E+00 -2.26380359E-04  0.00000000E+00
  3.70463052E-02  8.25824227E-02 -4.81066524E-02 -5.74782020E-01  3.61366069E+00
  0.00000000E+00  0.00000000E+00  2.08872268E-01  0.00000000E+00  0.00000000E+00
  9.21465891E-01  0.00000000E+00  0.00000000E+00 -9.99851795E-01  2.45625257E-02
  0.00000000E+00  0.00000000E+00 -1.27569545E-02  0.00000000E+00  8.94066312E-02
  1.04926522E+00 -2.05385970E+00  0.00000000E+00  1.85439774E-02  6.54782484E-03
  8.94066312E-02  1.04926522E+00 -2.05385970E+00  0.00000000E+00 -1.85439774E-02
  6.54782484E-03  9.54474534E-03  2.09224030E-02 -2.77026208E-03 -1.67032298E-01
 -6.71417635E-01  0.00000000E+00  0.00000000E+00 -1.21104453E-01  0.00000000E+00
  0.00000000E+00 -2.31405412E-01  0.00000000E+00  0.00000000E+00  1.26485227E+00
  9.19091553E-03  0.00000000E+00  0.00000000E+00 -2.38414879E-03  0.00000000E+00
  0.00000000E+00  0.00000000E+00  0.00000000E+00  0.00000000E+00  0.00000000E+00
  0.00000000E+00 -3.58831803E-01  0.00000000E+00  0.00000000E+00 -1.18136889E+00
  0.00000000E+00  0.00000000E+00  7.46068289E-01  0.00000000E+00  0.00000000E+00
  0.00000000E+00 -6.98412907E-03  0.00000000E+00  0.00000000E+00 -9.35793045E-02
 -1.36922124E+00  1.63341304E+00  0.00000000E+00 -4.82280431E-02  2.72779335E-03
  9.35793045E-02  1.36922124E+00 -1.63341304E+00  0.00000000E+00 -4.82280431E-02
 -2.72779335E-03  0.00000000E+00  0.00000000E+00  0.00000000E+00  0.00000000E+00
  0.00000000E+00  0.00000000E+00  8.35424855E-02  0.00000000E+00  0.00000000E+00
  4.44714665E-02  0.00000000E+00  0.00000000E+00  4.58971629E-01  0.00000000E+00
  0.00000000E+00  0.00000000E+00  3.36461422E-02  0.00000000E+00  0.00000000E+00