HF/STO-3G for formaldehyde, calculating the first two excited states and
FOpt      RCIS-FC                                                     STO-3G              
Number of atoms                            I                4
Info1-9                                    I   N=           9
           9           9           0           0           0         100
           2         101           1
Full Title                                 C   N=           9
HF/STO-3G for formaldehyde, calculating the first two excite
d states and optimizing its geometry.           
Route                                      C   N=           4
# CIS/STO-3G geom=check Density=Current Opt     
Charge                                     I                0
Multiplicity                               I                1
Number of electrons                        I               16
Number of alpha electrons                  I                8
Number of beta electrons                   I                8
Number of basis functions                  I               12
Number of independent functions            I               12
Number of point charges in /Mol/           I                0
Number of translation vectors              I                0
Atomic numbers                             I   N=           4
           6           1           1           8
Nuclear charges                            R   N=           4
  6.00000000E+00  1.00000000E+00  1.00000000E+00  8.00000000E+00
Current cartesian coordinates              R   N=          12
  7.39557099E-32 -9.95498010E-17 -1.10906976E+00 -1.97215226E-30 -1.78161038E+00
 -2.09815583E+00  2.18184344E-16  1.78161038E+00 -2.09815583E+00 -1.47911420E-31
  1.44134469E-16  1.35634127E+00
Number of symbols in /Mol/                 I                0
Int Atom Types                             I   N=           4
           0           0           0           0
Force Field                                I                0
Atom Types                                 C   N=           4
                                                
MM charges                                 R   N=           4
  0.00000000E+00  0.00000000E+00  0.00000000E+00  0.00000000E+00
Integer atomic weights                     I   N=           4
          12           1           1          16
Real atomic weights                        R   N=           4
  1.20000000E+01  1.00782504E+00  1.00782504E+00  1.59949146E+01
Atom fragment info                         I   N=           4
           0           0           0           0
Atom residue num                           I   N=           4
           0           0           0           0
Nuclear spins                              I   N=           4
           0           1           1           0
Nuclear ZEff                               R   N=           4
 -3.60000000E+00 -1.00000000E+00 -1.00000000E+00 -5.60000000E+00
Nuclear ZNuc                               R   N=           4
  6.00000000E+00  1.00000000E+00  1.00000000E+00  8.00000000E+00
Nuclear QMom                               R   N=           4
  0.00000000E+00  0.00000000E+00  0.00000000E+00  0.00000000E+00
Nuclear GFac                               R   N=           4
  0.00000000E+00  2.79284600E+00  2.79284600E+00  0.00000000E+00
MicOpt                                     I   N=           4
          -1          -1          -1          -1
Number of residues                         I                0
Number of secondary structures             I                0
Redundant internal dimensions              I   N=           4
           7           3           3           1
Redundant internal coordinate indices      I   N=          28
           1           2           0           0           1           3
           0           0           1           4           0           0
           2           1           3           0           2           1
           4           0           3           1           4           0
           2           1           4           3
Redundant internal coordinates             R   N=           7
  2.03775042E+00  2.03775042E+00  2.46541103E+00  2.12799405E+00  2.07759563E+00
  2.07759563E+00  3.14159265E+00
ZRed-IntVec                                I   N=           7
           0           0           0           0           0           0
           0
ZRed-FPVec                                 R   N=           7
  0.00000000E+00  0.00000000E+00  0.00000000E+00  0.00000000E+00  0.00000000E+00
  0.00000000E+00  0.00000000E+00
ZRed-Constraint1                           R   N=           7
  2.08086221E+00  2.08086221E+00  2.29894453E+00  1.99854786E+00  2.14231872E+00
  2.14231872E+00  3.14159265E+00
ZRed-Constraint2                           R   N=           7
  2.08086221E+00  2.08086221E+00  2.29894453E+00  1.99854786E+00  2.14231872E+00
  2.14231872E+00  3.14159265E+00
SymInf integers                            I   N=          26
           2           4           1           1           1          -1
          -1           1          -1           1           1           1
          -1           1           0           0           0           0
           0           0           0           0           0           0
           0           0
RotTr to input orientation                 R   N=          12
  1.19219137E-15 -9.00115620E-16 -1.00000000E+00 -8.66116354E-01  4.99842436E-01
 -1.48249243E-15  4.99842436E-01  8.66116354E-01 -1.83697020E-16 -4.48980264E-01
  1.68319760E-01 -1.47241711E-16
Number of contracted shells                I                6
Number of primitive shells                 I               18
Pure/Cartesian d shells                    I                0
Pure/Cartesian f shells                    I                0
Highest angular momentum                   I                1
Largest degree of contraction              I                3
Shell types                                I   N=           6
           0          -1           0           0           0          -1
Number of primitives per shell             I   N=           6
           3           3           3           3           3           3
Shell to atom map                          I   N=           6
           1           1           2           3           4           4
Primitive exponents                        R   N=          18
  7.16168373E+01  1.30450963E+01  3.53051216E+00  2.94124936E+00  6.83483096E-01
  2.22289916E-01  3.42525091E+00  6.23913730E-01  1.68855404E-01  3.42525091E+00
  6.23913730E-01  1.68855404E-01  1.30709321E+02  2.38088661E+01  6.44360831E+00
  5.03315132E+00  1.16959612E+00  3.80388960E-01
Contraction coefficients                   R   N=          18
  1.54328967E-01  5.35328142E-01  4.44634542E-01 -9.99672292E-02  3.99512826E-01
  7.00115469E-01  1.54328967E-01  5.35328142E-01  4.44634542E-01  1.54328967E-01
  5.35328142E-01  4.44634542E-01  1.54328967E-01  5.35328142E-01  4.44634542E-01
 -9.99672292E-02  3.99512826E-01  7.00115469E-01
P(S=P) Contraction coefficients            R   N=          18
  0.00000000E+00  0.00000000E+00  0.00000000E+00  1.55916275E-01  6.07683719E-01
  3.91957393E-01  0.00000000E+00  0.00000000E+00  0.00000000E+00  0.00000000E+00
  0.00000000E+00  0.00000000E+00  0.00000000E+00  0.00000000E+00  0.00000000E+00
  1.55916275E-01  6.07683719E-01  3.91957393E-01
Coordinates of each shell                  R   N=          18
 -2.46519033E-32  1.15599672E-17 -1.10906976E+00 -2.46519033E-32  1.15599672E-17
 -1.10906976E+00 -7.88860905E-31 -1.78161038E+00 -2.09815583E+00  2.18184344E-16
  1.78161038E+00 -2.09815583E+00  4.93038066E-32  3.30072072E-17  1.35634127E+00
  4.93038066E-32  3.30072072E-17  1.35634127E+00
Num ILSW                                   I              100
ILSW                                       I   N=         100
           0           0           0           1           2           0
           0           0           0           0           0          -1
           5           0           0           0           2           0
           0           0           1           0           1           0
           1           0           0           0           0           0
           0           0      100000           0          -1           0
           0           0           0           0           0           0
           0           0           0           1           0           0
           0 -2000000000           1           0           0           0
           0           0           4          52           0           0
           0           0           0           0           0           0
           0           0           0           0           0           1
           0           0           0           0           0           0
           0           0           0           0           0           0
           0           0           0           0           0           0
           0           0           0           0           0           0
           0           0           0           0
Num RLSW                                   I               52
RLSW                                       R   N=          52
  1.00000000E+00  1.00000000E+00  1.00000000E+00  1.00000000E+00  1.00000000E+00
  0.00000000E+00  0.00000000E+00  1.00000000E+00  0.00000000E+00  0.00000000E+00
  0.00000000E+00  0.00000000E+00  1.00000000E+00  0.00000000E+00  0.00000000E+00
  0.00000000E+00  0.00000000E+00  1.00000000E+00  0.00000000E+00  0.00000000E+00
  0.00000000E+00  0.00000000E+00  1.00000000E+00  0.00000000E+00  0.00000000E+00
  0.00000000E+00  0.00000000E+00  1.00000000E+00  0.00000000E+00  0.00000000E+00
  0.00000000E+00  0.00000000E+00  1.00000000E+00  0.00000000E+00  0.00000000E+00
  0.00000000E+00  0.00000000E+00  0.00000000E+00  1.00000000E+00  1.00000000E+00
  0.00000000E+00  1.00000000E+00  0.00000000E+00  0.00000000E+00  0.00000000E+00
  0.00000000E+00  0.00000000E+00  0.00000000E+00  0.00000000E+00  0.00000000E+00
  0.00000000E+00  0.00000000E+00
MxBond                                     I                3
NBond                                      I   N=           4
           3           1           1           1
IBond                                      I   N=          12
           2           3           4           1           0           0
           1           0           0           1           0           0
RBond                                      R   N=          12
  1.00000000E+00  1.00000000E+00  2.00000000E+00  1.00000000E+00  0.00000000E+00
  0.00000000E+00  1.00000000E+00  0.00000000E+00  0.00000000E+00  2.00000000E+00
  0.00000000E+00  0.00000000E+00
Virial Ratio                               R      2.009264181676249E+00
SCF Energy                                 R     -1.123397038547702E+02
CIS Energy                                 R     -1.122141263719730E+02
Total Energy                               R     -1.122141263719730E+02
Post-SCF wavefunction norm                 R      1.000000000000000E+00
RMS Force                                  R      1.377688564444636E-04
RMS Density                                R      2.140720114398768E-09
Job Status                                 I                1
Nuclear derivative order                   I                1
External E-field                           R   N=          35
  0.00000000E+00  0.00000000E+00  0.00000000E+00  0.00000000E+00  0.00000000E+00
  0.00000000E+00  0.00000000E+00  0.00000000E+00  0.00000000E+00  0.00000000E+00
  0.00000000E+00  0.00000000E+00  0.00000000E+00  0.00000000E+00  0.00000000E+00
  0.00000000E+00  0.00000000E+00  0.00000000E+00  0.00000000E+00  0.00000000E+00
  0.00000000E+00  0.00000000E+00  0.00000000E+00  0.00000000E+00  0.00000000E+00
  0.00000000E+00  0.00000000E+00  0.00000000E+00  0.00000000E+00  0.00000000E+00
  0.00000000E+00  0.00000000E+00  0.00000000E+00  0.00000000E+00  0.00000000E+00
IOpCl                                      I                0
IROHF                                      I                0
Alpha Orbital Energies                     R   N=          12
 -2.02937517E+01 -1.11056953E+01 -1.28043236E+00 -8.15989971E-01 -6.25838698E-01
 -5.16910539E-01 -3.95407290E-01 -3.60458035E-01  2.53218504E-01  6.31441780E-01
  7.73684012E-01  7.87973172E-01
Alpha MO coefficients                      R   N=         144
  5.55886458E-04 -5.74572886E-03  0.00000000E+00  0.00000000E+00 -5.37039587E-03
  1.67039482E-04  1.67039482E-04  9.94446197E-01  2.43985800E-02  0.00000000E+00
  0.00000000E+00 -4.49621711E-03  9.92626825E-01  3.29431399E-02  0.00000000E+00
  0.00000000E+00 -2.98015504E-06 -6.76912357E-03 -6.76912357E-03  3.08166253E-04
 -5.21462888E-03  0.00000000E+00  0.00000000E+00  2.16992962E-03 -1.12647103E-01
  2.79751462E-01  0.00000000E+00  0.00000000E+00  1.41842892E-01  3.56057553E-02
  3.56057553E-02 -2.22531632E-01  8.00936438E-01  0.00000000E+00  0.00000000E+00
 -1.38167583E-01 -1.91196377E-01  5.85862368E-01  0.00000000E+00  0.00000000E+00
 -2.01337234E-01  2.65349504E-01  2.65349504E-01  1.00065002E-01 -4.34359257E-01
  0.00000000E+00  0.00000000E+00 -1.54986875E-01  0.00000000E+00  0.00000000E+00
  0.00000000E+00  5.38038965E-01  0.00000000E+00 -3.36628174E-01  3.36628174E-01
  0.00000000E+00  0.00000000E+00  0.00000000E+00  3.64368439E-01  0.00000000E+00
  3.19203330E-02 -1.28559218E-01  0.00000000E+00  0.00000000E+00 -4.74364510E-01
  1.65088873E-01  1.65088873E-01 -8.66982072E-02  4.53886936E-01  0.00000000E+00
  0.00000000E+00  6.64909970E-01  0.00000000E+00  0.00000000E+00  6.24206712E-01
  0.00000000E+00  0.00000000E+00  0.00000000E+00  0.00000000E+00  0.00000000E+00
  0.00000000E+00  6.80336326E-01  0.00000000E+00  0.00000000E+00  0.00000000E+00
  0.00000000E+00  0.00000000E+00 -1.50718064E-01  0.00000000E+00  2.95231975E-01
 -2.95231975E-01  0.00000000E+00  0.00000000E+00  0.00000000E+00  9.16616727E-01
  0.00000000E+00  0.00000000E+00  0.00000000E+00  8.00916180E-01  0.00000000E+00
  0.00000000E+00  0.00000000E+00  0.00000000E+00  0.00000000E+00  0.00000000E+00
 -7.53819096E-01  0.00000000E+00  0.00000000E+00 -2.11834630E-01  1.32711968E+00
  0.00000000E+00  0.00000000E+00 -4.01141907E-01 -8.97940436E-01 -8.97940436E-01
  2.69356723E-02 -1.55442061E-01  0.00000000E+00  0.00000000E+00  2.60282221E-01
  0.00000000E+00  0.00000000E+00  0.00000000E+00  1.18339059E+00  0.00000000E+00
  8.78518073E-01 -8.78518073E-01  0.00000000E+00  0.00000000E+00  0.00000000E+00
 -2.52516097E-01  0.00000000E+00 -8.61869338E-02  4.77648871E-01  0.00000000E+00
  0.00000000E+00  1.09306454E+00  1.66121824E-01  1.66121824E-01  1.03724893E-01
 -7.03291118E-01  0.00000000E+00  0.00000000E+00  8.77748526E-01
Orthonormal basis                          R   N=         144
  1.64218345E-01  4.56513532E-01  0.00000000E+00  0.00000000E+00 -7.56029791E-04
  3.04258455E-01  3.04258455E-01  6.32276697E-02  2.01637446E-01  0.00000000E+00
  0.00000000E+00 -1.79597242E-01 -1.44510055E-02 -1.47900678E-02  0.00000000E+00
  0.00000000E+00  5.49014481E-01 -2.01582208E-01 -2.01582208E-01  1.96830984E-01
  3.90333201E-01  0.00000000E+00  0.00000000E+00 -2.28596414E-01 -1.57742199E-01
 -5.13877181E-02  0.00000000E+00  0.00000000E+00 -1.98476811E-01  6.37835949E-02
  6.37835949E-02  5.89682812E-01  3.72474749E-01  0.00000000E+00  0.00000000E+00
  5.67877461E-01  9.59539951E-01 -3.07247507E-02  0.00000000E+00  0.00000000E+00
 -6.14931517E-03 -1.65247291E-01 -1.65247291E-01  3.67098700E-02  4.65431543E-03
  0.00000000E+00  0.00000000E+00  2.57555404E-01  9.90559656E-02 -9.17655195E-02
  0.00000000E+00  0.00000000E+00 -1.92686378E-01 -3.94033650E-02 -3.94033650E-02
  7.83416518E-01 -4.79698687E-01  0.00000000E+00  0.00000000E+00 -5.38142723E-01
 -7.72317462E-03 -7.07668736E-03  0.00000000E+00  0.00000000E+00  1.12371707E+00
  4.54126459E-01  4.54126459E-01  2.22294753E-01 -8.60241344E-01  0.00000000E+00
  0.00000000E+00  6.21354125E-01 -3.24387122E-01  1.48588606E+00  0.00000000E+00
  0.00000000E+00 -2.63651548E-02 -7.48668637E-01 -7.48668637E-01  1.11748032E-01
 -5.03667389E-01  0.00000000E+00  0.00000000E+00  4.17637510E-01  0.00000000E+00
  0.00000000E+00  6.52696460E-01  0.00000000E+00  0.00000000E+00  0.00000000E+00
  0.00000000E+00  0.00000000E+00  0.00000000E+00  6.52696460E-01  0.00000000E+00
  0.00000000E+00  0.00000000E+00  0.00000000E+00  7.77874076E-01  0.00000000E+00
  0.00000000E+00  0.00000000E+00  0.00000000E+00  0.00000000E+00  0.00000000E+00
 -7.77874076E-01  0.00000000E+00  0.00000000E+00  0.00000000E+00  0.00000000E+00
  0.00000000E+00  5.84654258E-01  0.00000000E+00 -3.52105713E-01  3.52105713E-01
  0.00000000E+00  0.00000000E+00  0.00000000E+00  2.23859789E-01  0.00000000E+00
  0.00000000E+00  0.00000000E+00  0.00000000E+00 -1.32650051E-01  0.00000000E+00
  1.98559307E-01 -1.98559307E-01  0.00000000E+00  0.00000000E+00  0.00000000E+00
  9.71063857E-01  0.00000000E+00  0.00000000E+00  0.00000000E+00  0.00000000E+00
  1.16327061E+00  0.00000000E+00  8.99372125E-01 -8.99372125E-01  0.00000000E+00
  0.00000000E+00  0.00000000E+00 -2.08894096E-01  0.00000000E+00
Total SCF Density                          R   N=          78
  2.07114531E+00 -2.29869113E-01  8.78282663E-01  9.99121475E-34  0.00000000E+00
  7.79268038E-01  5.01533963E-19 -1.17475594E-18  1.63318859E-31  6.24403726E-01
  1.47378844E-02 -3.45209268E-02  3.87376655E-32  4.53236238E-17  5.71413235E-01
 -1.12388356E-01  2.87942797E-01 -1.06311333E-31 -4.51231733E-01 -2.53374982E-01
  5.98917521E-01 -1.12388356E-01  2.87942797E-01  7.24149659E-32  4.51231733E-01
 -2.53374982E-01 -2.03004266E-01  5.98917521E-01  8.05347102E-03  3.62591371E-03
 -2.15924724E-33 -1.08388805E-18 -3.18507178E-02  8.95981636E-03  8.95981636E-03
  2.11194649E+00  4.30070238E-03 -1.78149853E-01 -1.94958842E-33 -9.78644569E-19
 -2.87580734E-02 -2.35360197E-02 -2.35360197E-02 -4.73575136E-01  2.07360595E+00
  9.29745967E-33  0.00000000E+00  8.49341002E-01  8.32001736E-32 -3.14068084E-32
  6.62519901E-32 -4.93038066E-32 -6.35613607E-33  0.00000000E+00  9.25715034E-01
  4.66709195E-18 -1.46218850E-17  6.77927340E-32  1.15787438E-01 -1.58765676E-17
  2.95915768E-01 -2.95915768E-01 -3.19062115E-18  1.75820350E-17  4.25245332E-31
  1.94590117E+00  1.37145371E-01 -4.29673097E-01 -4.11880197E-32 -1.58765676E-17
 -6.07558026E-01  1.27417093E-01  1.27417093E-01 -9.37583675E-02  5.16658928E-01
  6.57916830E-32  1.13673257E-16  9.70482810E-01
Total CI Rho(1) Density                    R   N=          78
  2.07114531E+00 -2.29869113E-01  8.78282663E-01  9.99121475E-34  0.00000000E+00
  1.42073435E+00  5.01533963E-19 -1.17475594E-18  1.63318859E-31  6.20678635E-01
  1.47378844E-02 -3.45209268E-02  3.87376655E-32  4.53236238E-17  5.71413235E-01
 -1.12388356E-01  2.87942797E-01 -1.06311333E-31 -4.36799578E-01 -2.53374982E-01
  5.43014964E-01 -1.12388356E-01  2.87942797E-01  7.24149659E-32  4.36799578E-01
 -2.53374982E-01 -1.47101709E-01  5.43014964E-01  8.05347102E-03  3.62591371E-03
 -2.15924724E-33 -1.08388805E-18 -3.18507178E-02  8.95981636E-03  8.95981636E-03
  2.11194649E+00  4.30070238E-03 -1.78149853E-01 -1.94958842E-33 -9.78644569E-19
 -2.87580734E-02 -2.35360197E-02 -2.35360197E-02 -4.73575136E-01  2.07360595E+00
  9.29745967E-33  0.00000000E+00  2.45595164E-01  8.32001736E-32 -3.14068084E-32
  6.62519901E-32 -4.93038066E-32 -6.35613607E-33  0.00000000E+00  1.49395785E+00
  4.66709195E-18 -1.46218850E-17  6.77927340E-32  1.74612002E-01 -1.58765676E-17
  6.80519528E-02 -6.80519528E-02 -3.19062115E-18  1.75820350E-17  4.25245332E-31
  1.01711385E+00  1.37145371E-01 -4.29673097E-01 -4.11880197E-32 -1.58765676E-17
 -6.07558026E-01  1.27417093E-01  1.27417093E-01 -9.37583675E-02  5.16658928E-01
  6.57916830E-32  1.13673257E-16  9.70482810E-01
Total CI Density                           R   N=          78
  2.06538724E+00 -2.04333926E-01  7.80833586E-01  9.99121475E-34  0.00000000E+00
  1.29309834E+00 -1.73468519E-18  5.56896590E-18  1.63318859E-31  5.96608020E-01
  2.68217789E-02 -8.97077806E-02  3.87376655E-32  4.30709059E-17  4.27068816E-01
 -1.20938225E-01  3.12500929E-01 -1.06311333E-31 -4.37292335E-01 -2.31908051E-01
  5.73662247E-01 -1.20938225E-01  3.12500929E-01  7.24149659E-32  4.37292335E-01
 -2.31908051E-01 -1.41522720E-01  5.73662247E-01  9.25004584E-03  2.74540988E-05
 -2.15924724E-33  6.74377283E-20 -3.93857252E-02  1.12750225E-02  1.12750225E-02
  2.11186872E+00 -6.05816695E-03 -1.39778945E-01 -1.94958842E-33 -5.99194730E-18
  3.90258891E-02 -4.09377111E-02 -4.09377111E-02 -4.71133741E-01  2.04434118E+00
  9.29745967E-33  0.00000000E+00  2.36103798E-01  8.32001736E-32 -3.14068084E-32
  6.62519901E-32 -4.93038066E-32 -6.35613607E-33  0.00000000E+00  1.62489066E+00
  5.07853090E-18 -1.56713524E-17  6.77927340E-32  1.73653034E-01 -1.50710826E-17
  6.36321522E-02 -6.36321522E-02 -3.39476191E-18  1.83746628E-17  4.25245332E-31
  1.01861910E+00  1.34363935E-01 -3.83820325E-01 -4.11880197E-32 -1.75732000E-17
 -5.81258167E-01  1.39493404E-01  1.39493404E-01 -8.42227086E-02  4.69043612E-01
  6.57916830E-32  1.14392086E-16  1.13906528E+00
Number of excited states                   I                3
Excited state NLR                          I                1
Number of ex state dens                    I                3
Number of g2e trans dens                   I                3
Number of e2e trans dens                   I                0
Excited state spins                        I   N=           3
           0           0           0
Excited state densities                    R   N=         468
  1.03557265E+00 -1.14934557E-01  4.39141332E-01  4.99560738E-34  0.00000000E+00
  7.10367174E-01  2.50766981E-19 -5.87377971E-19  8.16594296E-32  3.10339317E-01
  7.36894218E-03 -1.72604634E-02  1.93688327E-32  2.26618119E-17  2.85706617E-01
 -5.61941779E-02  1.43971399E-01 -5.31556665E-32 -2.18399789E-01 -1.26687491E-01
  2.71507482E-01 -5.61941779E-02  1.43971399E-01  3.62074830E-32  2.18399789E-01
 -1.26687491E-01 -7.35508544E-02  2.71507482E-01  4.02673551E-03  1.81295686E-03
 -1.07962362E-33 -5.41944024E-19 -1.59253589E-02  4.47990818E-03  4.47990818E-03
  1.05597324E+00  2.15035119E-03 -8.90749264E-02 -9.74794210E-34 -4.89322285E-19
 -1.43790367E-02 -1.17680099E-02 -1.17680099E-02 -2.36787568E-01  1.03680298E+00
  4.64872984E-33  0.00000000E+00  1.22797582E-01  4.16000868E-32 -1.57034042E-32
  3.31259950E-32 -2.46519033E-32 -3.17806804E-33  0.00000000E+00  7.46978923E-01
  2.33354598E-18 -7.31094252E-18  3.38963670E-32  8.73060008E-02 -7.93828382E-18
  3.40259764E-02 -3.40259764E-02 -1.59531058E-18  8.79101752E-18  2.12622666E-31
  5.08556923E-01  6.85726856E-02 -2.14836548E-01 -2.05940098E-32 -7.93828382E-18
 -3.03779013E-01  6.37085463E-02  6.37085463E-02 -4.68791838E-02  2.58329464E-01
  3.28958415E-32  5.68366283E-17  4.85241405E-01  1.03557265E+00 -1.14934557E-01
  4.39141332E-01  4.99560738E-34  0.00000000E+00  7.10367174E-01  2.50766981E-19
 -5.87377971E-19  8.16594296E-32  3.10339317E-01  7.36894218E-03 -1.72604634E-02
  1.93688327E-32  2.26618119E-17  2.85706617E-01 -5.61941779E-02  1.43971399E-01
 -5.31556665E-32 -2.18399789E-01 -1.26687491E-01  2.71507482E-01 -5.61941779E-02
  1.43971399E-01  3.62074830E-32  2.18399789E-01 -1.26687491E-01 -7.35508544E-02
  2.71507482E-01  4.02673551E-03  1.81295686E-03 -1.07962362E-33 -5.41944024E-19
 -1.59253589E-02  4.47990818E-03  4.47990818E-03  1.05597324E+00  2.15035119E-03
 -8.90749264E-02 -9.74794210E-34 -4.89322285E-19 -1.43790367E-02 -1.17680099E-02
 -1.17680099E-02 -2.36787568E-01  1.03680298E+00  4.64872984E-33  0.00000000E+00
  1.22797582E-01  4.16000868E-32 -1.57034042E-32  3.31259950E-32 -2.46519033E-32
 -3.17806804E-33  0.00000000E+00  7.46978923E-01  2.33354598E-18 -7.31094252E-18
  3.38963670E-32  8.73060008E-02 -7.93828382E-18  3.40259764E-02 -3.40259764E-02
 -1.59531058E-18  8.79101752E-18  2.12622666E-31  5.08556923E-01  6.85726856E-02
 -2.14836548E-01 -2.05940098E-32 -7.93828382E-18 -3.03779013E-01  6.37085463E-02
  6.37085463E-02 -4.68791838E-02  2.58329464E-01  3.28958415E-32  5.68366283E-17
  4.85241405E-01  1.03435744E+00 -1.10592059E-01  4.23625087E-01  4.99560738E-34
  0.00000000E+00  7.10314411E-01  2.50766981E-19 -5.87377971E-19  8.16594296E-32
  3.12201863E-01  1.90887897E-02 -5.91384069E-02  1.93688327E-32  2.26618119E-17
  1.72680856E-01 -5.98960060E-02  1.57203392E-01 -5.31556665E-32 -2.25615866E-01
 -9.09800761E-02  2.88191576E-01 -5.98960060E-02  1.57203392E-01  3.62074830E-32
  2.25615866E-01 -9.09800761E-02 -1.12769317E-01  2.88191576E-01  5.79984926E-03
 -4.52335540E-03 -1.07962362E-33 -5.41944024E-19 -3.30260574E-02  9.88077203E-03
  9.88077203E-03  1.05338612E+00 -7.78887862E-03 -5.35576329E-02 -9.74794210E-34
 -4.89322285E-19  8.14776345E-02 -4.20453636E-02 -4.20453636E-02 -2.22285254E-01
  9.55509944E-01  4.64872984E-33  0.00000000E+00  1.22806746E-01  4.16000868E-32
 -1.57034042E-32  3.31259950E-32 -2.46519033E-32 -3.17806804E-33  0.00000000E+00
  7.46926160E-01  2.33354598E-18 -7.31094252E-18  3.38963670E-32  5.78937192E-02
 -7.93828382E-18  1.47957884E-01 -1.47957884E-01 -1.59531058E-18  8.79101752E-18
  2.12622666E-31  9.72950584E-01  5.18026463E-02 -1.54891949E-01 -2.05940098E-32
 -7.93828382E-18 -1.42015571E-01  1.26683528E-02  1.26683528E-02 -2.24122860E-02
  1.21166835E-01  3.28958415E-32  5.68366283E-17  2.54030654E-01  1.03435744E+00
 -1.10592059E-01  4.23625087E-01  4.99560738E-34  0.00000000E+00  7.10314411E-01
  2.50766981E-19 -5.87377971E-19  8.16594296E-32  3.12201863E-01  1.90887897E-02
 -5.91384069E-02  1.93688327E-32  2.26618119E-17  1.72680856E-01 -5.98960060E-02
  1.57203392E-01 -5.31556665E-32 -2.25615866E-01 -9.09800761E-02  2.88191576E-01
 -5.98960060E-02  1.57203392E-01  3.62074830E-32  2.25615866E-01 -9.09800761E-02
 -1.12769317E-01  2.88191576E-01  5.79984926E-03 -4.52335540E-03 -1.07962362E-33
 -5.41944024E-19 -3.30260574E-02  9.88077203E-03  9.88077203E-03  1.05338612E+00
 -7.78887862E-03 -5.35576329E-02 -9.74794210E-34 -4.89322285E-19  8.14776345E-02
 -4.20453636E-02 -4.20453636E-02 -2.22285254E-01  9.55509944E-01  4.64872984E-33
  0.00000000E+00  1.22806746E-01  4.16000868E-32 -1.57034042E-32  3.31259950E-32
 -2.46519033E-32 -3.17806804E-33  0.00000000E+00  7.46926160E-01  2.33354598E-18
 -7.31094252E-18  3.38963670E-32  5.78937192E-02 -7.93828382E-18  1.47957884E-01
 -1.47957884E-01 -1.59531058E-18  8.79101752E-18  2.12622666E-31  9.72950584E-01
  5.18026463E-02 -1.54891949E-01 -2.05940098E-32 -7.93828382E-18 -1.42015571E-01
  1.26683528E-02  1.26683528E-02 -2.24122860E-02  1.21166835E-01  3.28958415E-32
  5.68366283E-17  2.54030654E-01  1.03660876E+00 -1.21938162E-01  4.83227078E-01
  4.99560738E-34  0.00000000E+00  4.96280844E-01  2.50766981E-19 -5.87377971E-19
  8.16594296E-32  3.23362048E-01  7.68032431E-04  2.63067715E-02  1.93688327E-32
  2.26618119E-17  3.29593655E-01 -5.55720842E-02  1.38917627E-01 -5.31556665E-32
 -2.17222900E-01 -1.26494462E-01  3.06282665E-01 -5.55720842E-02  1.38917627E-01
  3.62074830E-32  2.17222900E-01 -1.26494462E-01 -1.07208171E-01  3.06282665E-01
  3.21382664E-03  7.06431839E-03 -1.07962362E-33 -5.41944024E-19 -1.04614165E-02
  4.18200855E-03  4.18200855E-03  1.05662610E+00  7.56653277E-03 -1.24143665E-01
 -9.74794210E-34 -4.89322285E-19 -5.03887753E-02 -1.00697952E-02 -1.00697952E-02
 -2.41136471E-01  1.06570575E+00  4.64872984E-33  0.00000000E+00 -1.08461796E-02
  4.16000868E-32 -1.57034042E-32  3.31259950E-32 -2.46519033E-32 -3.17806804E-33
  0.00000000E+00  5.07486555E-01  2.33354598E-18 -7.31094252E-18  3.38963670E-32
  5.40720487E-02 -7.93828382E-18  1.45709904E-01 -1.45709904E-01 -1.59531058E-18
  8.79101752E-18  2.12622666E-31  9.65905084E-01  5.69307427E-02 -1.54512169E-01
 -2.05940098E-32 -7.93828382E-18 -2.24498548E-01  5.19266580E-02  5.19266580E-02
 -3.85443688E-02  2.01548416E-01  3.28958415E-32  5.68366283E-17  5.09734172E-01
  1.03660876E+00 -1.21938162E-01  4.83227078E-01  4.99560738E-34  0.00000000E+00
  4.96280844E-01  2.50766981E-19 -5.87377971E-19  8.16594296E-32  3.23362048E-01
  7.68032431E-04  2.63067715E-02  1.93688327E-32  2.26618119E-17  3.29593655E-01
 -5.55720842E-02  1.38917627E-01 -5.31556665E-32 -2.17222900E-01 -1.26494462E-01
  3.06282665E-01 -5.55720842E-02  1.38917627E-01  3.62074830E-32  2.17222900E-01
 -1.26494462E-01 -1.07208171E-01  3.06282665E-01  3.21382664E-03  7.06431839E-03
 -1.07962362E-33 -5.41944024E-19 -1.04614165E-02  4.18200855E-03  4.18200855E-03
  1.05662610E+00  7.56653277E-03 -1.24143665E-01 -9.74794210E-34 -4.89322285E-19
 -5.03887753E-02 -1.00697952E-02 -1.00697952E-02 -2.41136471E-01  1.06570575E+00
  4.64872984E-33  0.00000000E+00 -1.08461796E-02  4.16000868E-32 -1.57034042E-32
  3.31259950E-32 -2.46519033E-32 -3.17806804E-33  0.00000000E+00  5.07486555E-01
  2.33354598E-18 -7.31094252E-18  3.38963670E-32  5.40720487E-02 -7.93828382E-18
  1.45709904E-01 -1.45709904E-01 -1.59531058E-18  8.79101752E-18  2.12622666E-31
  9.65905084E-01  5.69307427E-02 -1.54512169E-01 -2.05940098E-32 -7.93828382E-18
 -2.24498548E-01  5.19266580E-02  5.19266580E-02 -3.85443688E-02  2.01548416E-01
  3.28958415E-32  5.68366283E-17  5.09734172E-01
G to E trans densities                     R   N=         864
  0.00000000E+00  0.00000000E+00  0.00000000E+00  0.00000000E+00  0.00000000E+00
  0.00000000E+00  0.00000000E+00  0.00000000E+00  0.00000000E+00  0.00000000E+00
  0.00000000E+00  0.00000000E+00  0.00000000E+00  0.00000000E+00  0.00000000E+00
  0.00000000E+00  0.00000000E+00  0.00000000E+00  0.00000000E+00  0.00000000E+00
  0.00000000E+00  0.00000000E+00  0.00000000E+00  0.00000000E+00  0.00000000E+00
  0.00000000E+00  0.00000000E+00 -4.69785781E-04  0.00000000E+00 -3.48756617E-04
  3.48756617E-04  0.00000000E+00  0.00000000E+00  0.00000000E+00  1.00244562E-04
  0.00000000E+00  0.00000000E+00  0.00000000E+00 -4.88864527E-02  0.00000000E+00
  0.00000000E+00  0.00000000E+00  0.00000000E+00  0.00000000E+00  0.00000000E+00
  4.60117332E-02  0.00000000E+00  0.00000000E+00  0.00000000E+00  0.00000000E+00