HF/STO-3G for formaldehyde, calculating the first two excited states and
FOpt      RTD-FC                                                      STO-3G              
Number of atoms                            I                4
Info1-9                                    I   N=           9
           9           9           0           0           0         100
           2         201           1
Full Title                                 C   N=           9
HF/STO-3G for formaldehyde, calculating the first two excite
d states and optimizing its geometry.           
Route                                      C   N=           6
# CIS/STO-3G CIS=(nstates=2, Root=1) geom=check Density=Curr
ent Opt     
Charge                                     I                0
Multiplicity                               I                1
Number of electrons                        I               16
Number of alpha electrons                  I                8
Number of beta electrons                   I                8
Number of basis functions                  I               12
Number of independent functions            I               12
Number of point charges in /Mol/           I                0
Number of translation vectors              I                0
Atomic numbers                             I   N=           4
           6           1           1           8
Nuclear charges                            R   N=           4
  6.00000000E+00  1.00000000E+00  1.00000000E+00  8.00000000E+00
Current cartesian coordinates              R   N=          12
 -7.39557099E-32  7.08383894E-17 -1.10808485E+00 -1.18329136E-30 -1.77889438E+00
 -2.10386955E+00  2.17851731E-16  1.77889438E+00 -2.10386955E+00 -4.93038066E-31
  3.04456484E-16  1.35703102E+00
Number of symbols in /Mol/                 I                0
Int Atom Types                             I   N=           4
           0           0           0           0
Force Field                                I                0
Atom Types                                 C   N=           4
                                                
MM charges                                 R   N=           4
  0.00000000E+00  0.00000000E+00  0.00000000E+00  0.00000000E+00
Integer atomic weights                     I   N=           4
          12           1           1          16
Real atomic weights                        R   N=           4
  1.20000000E+01  1.00782504E+00  1.00782504E+00  1.59949146E+01
Atom fragment info                         I   N=           4
           0           0           0           0
Atom residue num                           I   N=           4
           0           0           0           0
Nuclear spins                              I   N=           4
           0           1           1           0
Nuclear ZEff                               R   N=           4
 -3.60000000E+00 -1.00000000E+00 -1.00000000E+00 -5.60000000E+00
Nuclear ZNuc                               R   N=           4
  6.00000000E+00  1.00000000E+00  1.00000000E+00  8.00000000E+00
Nuclear QMom                               R   N=           4
  0.00000000E+00  0.00000000E+00  0.00000000E+00  0.00000000E+00
Nuclear GFac                               R   N=           4
  0.00000000E+00  2.79284600E+00  2.79284600E+00  0.00000000E+00
MicOpt                                     I   N=           4
          -1          -1          -1          -1
Number of residues                         I                0
Number of secondary structures             I                0
Redundant internal dimensions              I   N=           4
           7           3           3           1
Redundant internal coordinate indices      I   N=          28
           1           2           0           0           1           3
           0           0           1           4           0           0
           2           1           3           0           2           1
           4           0           3           1           4           0
           2           1           4           3
Redundant internal coordinates             R   N=           7
  2.03863984E+00  2.03863984E+00  2.46511587E+00  2.12095511E+00  2.08111510E+00
  2.08111510E+00  3.14159265E+00
ZRed-IntVec                                I   N=           7
           0           0           0           0           0           0
           0
ZRed-FPVec                                 R   N=           7
  0.00000000E+00  0.00000000E+00  0.00000000E+00  0.00000000E+00  0.00000000E+00
  0.00000000E+00  0.00000000E+00
ZRed-Constraint1                           R   N=           7
  2.08086221E+00  2.08086221E+00  2.29894453E+00  1.99854786E+00  2.14231872E+00
  2.14231872E+00  3.14159265E+00
ZRed-Constraint2                           R   N=           7
  2.08086221E+00  2.08086221E+00  2.29894453E+00  1.99854786E+00  2.14231872E+00
  2.14231872E+00  3.14159265E+00
SymInf integers                            I   N=          26
           2           4           1           1           1          -1
          -1           1          -1           1           1           1
          -1           1           0           0           0           0
           0           0           0           0           0           0
           0           0
RotTr to input orientation                 R   N=          12
  1.09275200E-15 -8.42728392E-16 -1.00000000E+00 -8.66116354E-01  4.99842436E-01
 -1.36768179E-15  4.99842436E-01  8.66116354E-01 -1.83697020E-16 -4.47761550E-01
  1.70431521E-01 -1.34218995E-16
Number of contracted shells                I                6
Number of primitive shells                 I               18
Pure/Cartesian d shells                    I                0
Pure/Cartesian f shells                    I                0
Highest angular momentum                   I                1
Largest degree of contraction              I                3
Shell types                                I   N=           6
           0          -1           0           0           0          -1
Number of primitives per shell             I   N=           6
           3           3           3           3           3           3
Shell to atom map                          I   N=           6
           1           1           2           3           4           4
Primitive exponents                        R   N=          18
  7.16168373E+01  1.30450963E+01  3.53051216E+00  2.94124936E+00  6.83483096E-01
  2.22289916E-01  3.42525091E+00  6.23913730E-01  1.68855404E-01  3.42525091E+00
  6.23913730E-01  1.68855404E-01  1.30709321E+02  2.38088661E+01  6.44360831E+00
  5.03315132E+00  1.16959612E+00  3.80388960E-01
Contraction coefficients                   R   N=          18
  1.54328967E-01  5.35328142E-01  4.44634542E-01 -9.99672292E-02  3.99512826E-01
  7.00115469E-01  1.54328967E-01  5.35328142E-01  4.44634542E-01  1.54328967E-01
  5.35328142E-01  4.44634542E-01  1.54328967E-01  5.35328142E-01  4.44634542E-01
 -9.99672292E-02  3.99512826E-01  7.00115469E-01
P(S=P) Contraction coefficients            R   N=          18
  0.00000000E+00  0.00000000E+00  0.00000000E+00  1.55916275E-01  6.07683719E-01
  3.91957393E-01  0.00000000E+00  0.00000000E+00  0.00000000E+00  0.00000000E+00
  0.00000000E+00  0.00000000E+00  0.00000000E+00  0.00000000E+00  0.00000000E+00
  1.55916275E-01  6.07683719E-01  3.91957393E-01
Coordinates of each shell                  R   N=          18
  0.00000000E+00 -4.00789541E-17 -1.10808485E+00  0.00000000E+00 -4.00789541E-17
 -1.10808485E+00 -7.88860905E-31 -1.77889438E+00 -2.10386955E+00  2.17851731E-16
  1.77889438E+00 -2.10386955E+00  1.97215226E-31  8.23419066E-17  1.35703102E+00
  1.97215226E-31  8.23419066E-17  1.35703102E+00
Num ILSW                                   I              100
ILSW                                       I   N=         100
           0           0           0           1           2           0
           0           0           0           0           0          -1
           5           0           0           0           2           0
           0           0           1           0           1           0
           1           0           0           0           0           0
           0           0      100000           0          -1           0
           0           0           0           0           0           0
           0           0           0           1           0           0
           0 -2000000000           1           0           0           0
           0           0           4          52           0           0
           0           0           0           0           0           0
           0           0           0           0           0           1
           0           0           0           0           0           0
           0           0           0           0           0           0
           0           0           0           0           0           0
           0           0           0           0           0           0
           0           0           0           0
Num RLSW                                   I               52
RLSW                                       R   N=          52
  1.00000000E+00  1.00000000E+00  1.00000000E+00  1.00000000E+00  1.00000000E+00
  0.00000000E+00  0.00000000E+00  1.00000000E+00  0.00000000E+00  0.00000000E+00
  0.00000000E+00  0.00000000E+00  1.00000000E+00  0.00000000E+00  0.00000000E+00
  0.00000000E+00  0.00000000E+00  1.00000000E+00  0.00000000E+00  0.00000000E+00
  0.00000000E+00  0.00000000E+00  1.00000000E+00  0.00000000E+00  0.00000000E+00
  0.00000000E+00  0.00000000E+00  1.00000000E+00  0.00000000E+00  0.00000000E+00
  0.00000000E+00  0.00000000E+00  1.00000000E+00  0.00000000E+00  0.00000000E+00
  0.00000000E+00  0.00000000E+00  0.00000000E+00  1.00000000E+00  1.00000000E+00
  0.00000000E+00  1.00000000E+00  0.00000000E+00  0.00000000E+00  0.00000000E+00
  0.00000000E+00  0.00000000E+00  0.00000000E+00  0.00000000E+00  0.00000000E+00
  0.00000000E+00  0.00000000E+00
MxBond                                     I                3
NBond                                      I   N=           4
           3           1           1           1
IBond                                      I   N=          12
           2           3           4           1           0           0
           1           0           0           1           0           0
RBond                                      R   N=          12
  1.00000000E+00  1.00000000E+00  2.00000000E+00  1.00000000E+00  0.00000000E+00
  0.00000000E+00  1.00000000E+00  0.00000000E+00  0.00000000E+00  2.00000000E+00
  0.00000000E+00  0.00000000E+00
Virial Ratio                               R      2.009280739082943E+00
SCF Energy                                 R     -1.123399108726443E+02
CIS Energy                                 R     -1.122179303378971E+02
Total Energy                               R     -1.122179303378971E+02
Post-SCF wavefunction norm                 R      1.000000000000000E+00
RMS Force                                  R      1.179452284329412E-04
RMS Density                                R      1.992862047845084E-09
Job Status                                 I                1
Nuclear derivative order                   I                1
External E-field                           R   N=          35
  0.00000000E+00  0.00000000E+00  0.00000000E+00  0.00000000E+00  0.00000000E+00
  0.00000000E+00  0.00000000E+00  0.00000000E+00  0.00000000E+00  0.00000000E+00
  0.00000000E+00  0.00000000E+00  0.00000000E+00  0.00000000E+00  0.00000000E+00
  0.00000000E+00  0.00000000E+00  0.00000000E+00  0.00000000E+00  0.00000000E+00
  0.00000000E+00  0.00000000E+00  0.00000000E+00  0.00000000E+00  0.00000000E+00
  0.00000000E+00  0.00000000E+00  0.00000000E+00  0.00000000E+00  0.00000000E+00
  0.00000000E+00  0.00000000E+00  0.00000000E+00  0.00000000E+00  0.00000000E+00
IOpCl                                      I                0
IROHF                                      I                0
Alpha Orbital Energies                     R   N=          12
 -2.02940049E+01 -1.11059145E+01 -1.28056856E+00 -8.16168800E-01 -6.25226179E-01
 -5.17298576E-01 -3.95604785E-01 -3.60473780E-01  2.53162203E-01  6.31788647E-01
  7.71677376E-01  7.88692549E-01
Alpha MO coefficients                      R   N=         144
  5.55276337E-04 -5.74293018E-03  0.00000000E+00  0.00000000E+00 -5.37336931E-03
  1.62659093E-04  1.62659093E-04  9.94446123E-01  2.44000603E-02  0.00000000E+00
  0.00000000E+00 -4.49810697E-03  9.92628321E-01  3.29306035E-02  0.00000000E+00
  0.00000000E+00 -2.56896191E-05 -6.76600602E-03 -6.76600602E-03  3.07199824E-04
 -5.20787112E-03  0.00000000E+00  0.00000000E+00  2.16372251E-03 -1.12616998E-01
  2.79640907E-01  0.00000000E+00  0.00000000E+00  1.41888822E-01  3.55084522E-02
  3.55084522E-02 -2.22558156E-01  8.01031997E-01  0.00000000E+00  0.00000000E+00
 -1.38198238E-01 -1.91150732E-01  5.85823446E-01  0.00000000E+00  0.00000000E+00
 -2.01941697E-01  2.65322223E-01  2.65322223E-01  9.98572544E-02 -4.33365642E-01
  0.00000000E+00  0.00000000E+00 -1.54669847E-01  0.00000000E+00  0.00000000E+00
  0.00000000E+00  5.38080034E-01  0.00000000E+00 -3.36521863E-01  3.36521863E-01
  0.00000000E+00  0.00000000E+00  0.00000000E+00  3.65491388E-01  0.00000000E+00
  3.22326162E-02 -1.29590368E-01  0.00000000E+00  0.00000000E+00 -4.74041464E-01
  1.64851405E-01  1.64851405E-01 -8.68640305E-02  4.54689676E-01  0.00000000E+00
  0.00000000E+00  6.64736665E-01  0.00000000E+00  0.00000000E+00  6.23854691E-01
  0.00000000E+00  0.00000000E+00  0.00000000E+00  0.00000000E+00  0.00000000E+00
  0.00000000E+00  6.80636566E-01  0.00000000E+00  0.00000000E+00  0.00000000E+00
  0.00000000E+00  0.00000000E+00 -1.51048209E-01  0.00000000E+00  2.96085168E-01
 -2.96085168E-01  0.00000000E+00  0.00000000E+00  0.00000000E+00  9.15991214E-01
  0.00000000E+00  0.00000000E+00  0.00000000E+00  8.01203667E-01  0.00000000E+00
  0.00000000E+00  0.00000000E+00  0.00000000E+00  0.00000000E+00  0.00000000E+00
 -7.53562113E-01  0.00000000E+00  0.00000000E+00 -2.12652290E-01  1.33114912E+00
  0.00000000E+00  0.00000000E+00 -3.92469290E-01 -8.96136590E-01 -8.96136590E-01
  2.79443686E-02 -1.62015639E-01  0.00000000E+00  0.00000000E+00  2.69132973E-01
  0.00000000E+00  0.00000000E+00  0.00000000E+00  1.18157307E+00  0.00000000E+00
  8.77320269E-01 -8.77320269E-01  0.00000000E+00  0.00000000E+00  0.00000000E+00
 -2.53247861E-01  0.00000000E+00 -8.40697477E-02  4.64152770E-01  0.00000000E+00
  0.00000000E+00  1.09764290E+00  1.76083863E-01  1.76083863E-01  1.03477231E-01
 -7.02020542E-01  0.00000000E+00  0.00000000E+00  8.75328115E-01
Orthonormal basis                          R   N=         144
  1.64254596E-01  4.56560001E-01  0.00000000E+00  0.00000000E+00 -2.10301814E-03
  3.04617957E-01  3.04617957E-01  6.30314623E-02  2.01024537E-01  0.00000000E+00
  0.00000000E+00 -1.79183062E-01 -1.35297266E-02 -1.31294975E-02  0.00000000E+00
  0.00000000E+00  5.48732426E-01 -2.01160194E-01 -2.01160194E-01  1.96525821E-01
  3.90439573E-01  0.00000000E+00  0.00000000E+00 -2.29092457E-01 -1.58382443E-01
 -5.17769386E-02  0.00000000E+00  0.00000000E+00 -1.97873700E-01  6.37476983E-02
  6.37476983E-02  5.89799897E-01  3.72698693E-01  0.00000000E+00  0.00000000E+00
  5.67557707E-01  9.59342082E-01 -3.06406019E-02  0.00000000E+00  0.00000000E+00
 -6.51636234E-03 -1.64981299E-01 -1.64981299E-01  3.65710495E-02  4.70506857E-03
  0.00000000E+00  0.00000000E+00  2.58613758E-01  9.96879278E-02 -9.21739712E-02
  0.00000000E+00  0.00000000E+00 -1.92361798E-01 -3.93897736E-02 -3.93897736E-02
  7.83480378E-01 -4.79852321E-01  0.00000000E+00  0.00000000E+00 -5.37885935E-01
 -8.84878330E-03 -2.61143452E-03  0.00000000E+00  0.00000000E+00  1.12525026E+00
  4.52753535E-01  4.52753535E-01  2.22340369E-01 -8.61815816E-01  0.00000000E+00
  0.00000000E+00  6.22770223E-01 -3.24436904E-01  1.48524510E+00  0.00000000E+00
  0.00000000E+00 -3.17770149E-02 -7.49578147E-01 -7.49578147E-01  1.11297389E-01
 -5.01138710E-01  0.00000000E+00  0.00000000E+00  4.15687803E-01  0.00000000E+00
  0.00000000E+00  6.52680465E-01  0.00000000E+00  0.00000000E+00  0.00000000E+00
  0.00000000E+00  0.00000000E+00  0.00000000E+00  6.52680465E-01  0.00000000E+00
  0.00000000E+00  0.00000000E+00  0.00000000E+00  7.77901152E-01  0.00000000E+00
  0.00000000E+00  0.00000000E+00  0.00000000E+00  0.00000000E+00  0.00000000E+00
 -7.77901152E-01  0.00000000E+00  0.00000000E+00  0.00000000E+00  0.00000000E+00
  0.00000000E+00  5.85131574E-01  0.00000000E+00 -3.52002147E-01  3.52002147E-01
  0.00000000E+00  0.00000000E+00  0.00000000E+00  2.24374081E-01  0.00000000E+00
  0.00000000E+00  0.00000000E+00  0.00000000E+00 -1.32809248E-01  0.00000000E+00
  1.99032436E-01 -1.99032436E-01  0.00000000E+00  0.00000000E+00  0.00000000E+00
  9.70836618E-01  0.00000000E+00  0.00000000E+00  0.00000000E+00  0.00000000E+00
  1.16122494E+00  0.00000000E+00  8.98378997E-01 -8.98378997E-01  0.00000000E+00
  0.00000000E+00  0.00000000E+00 -2.09501481E-01  0.00000000E+00
Total SCF Density                          R   N=          78
  2.07114285E+00 -2.29930552E-01  8.78598433E-01  7.21228853E-34  0.00000000E+00
  7.78389352E-01  2.91726880E-19 -6.84554516E-19  1.94133738E-31  6.24691369E-01
  1.46282590E-02 -3.43260819E-02  2.81679619E-32  1.34660669E-17  5.71314140E-01
 -1.12235678E-01  2.87549395E-01 -1.23259516E-31 -4.51597659E-01 -2.53376938E-01
  5.99583827E-01 -1.12235678E-01  2.87549395E-01  9.70668692E-32  4.51597659E-01
 -2.53376938E-01 -2.04069735E-01  5.99583827E-01  8.06663343E-03  3.63635922E-03
 -1.56887079E-33 -6.34586069E-19 -3.18204801E-02  8.86334552E-03  8.86334552E-03
  2.11194430E+00  4.25649470E-03 -1.78218936E-01 -1.42987512E-33 -5.78364283E-19
 -2.90013129E-02 -2.30853832E-02 -2.30853832E-02 -4.73568279E-01  2.07364645E+00
  6.77436289E-33  0.00000000E+00  8.49236630E-01  5.85482703E-32  5.75720730E-32
  8.01186857E-32 -6.47112461E-32 -4.62488713E-33  0.00000000E+00  9.26532270E-01
  2.74013407E-18 -8.58738299E-18  7.08742220E-32  1.16609573E-01 -1.17168709E-17
  2.96431139E-01 -2.96431139E-01 -1.87070150E-18  1.03085880E-17  5.36178897E-31
  1.94524772E+00  1.37400403E-01 -4.30602976E-01 -2.99237740E-32 -1.17168709E-17
 -6.06926242E-01  1.27245697E-01  1.27245697E-01 -9.38038552E-02  5.16910527E-01
  4.78169283E-32  2.57949760E-17  9.69842525E-01
Total CI Rho(1) Density                    R   N=          78
  2.07114285E+00 -2.29930552E-01  8.78598433E-01  7.21228853E-34  0.00000000E+00
  1.43075279E+00 -1.48688004E-18  6.34538996E-18  1.94133738E-31  6.24352896E-01
  1.46282590E-02 -3.43260819E-02  2.81679619E-32  1.80186451E-17  5.71314140E-01
 -1.12235678E-01  2.87549395E-01 -1.23259516E-31 -4.35253828E-01 -2.53376938E-01
  5.44967579E-01 -1.12235678E-01  2.87549395E-01  9.70668692E-32  4.35253828E-01
 -2.53376938E-01 -1.49453486E-01  5.44967579E-01  8.06663343E-03  3.63635922E-03
 -1.56887079E-33  6.36400880E-19 -3.18204801E-02  8.86334552E-03  8.86334552E-03
  2.11194430E+00  4.25649470E-03 -1.78218936E-01 -1.42987512E-33 -7.41190232E-18
 -2.90013129E-02 -2.30853832E-02 -2.30853832E-02 -4.73568279E-01  2.07364645E+00
  6.77436289E-33  0.00000000E+00  2.33881266E-01  5.85482703E-32  5.75720730E-32
  8.01186857E-32 -6.47112461E-32 -4.62488713E-33  0.00000000E+00  1.50335171E+00
  2.50622754E-17 -8.06964753E-17  7.08742220E-32  1.73308988E-01 -6.32932929E-17
  6.50026118E-02 -6.50026118E-02 -1.94265762E-17  9.97769301E-17  5.36178897E-31
  9.98979495E-01  1.37400403E-01 -4.30602976E-01 -2.99237740E-32 -1.61098537E-17
 -6.06926242E-01  1.27245697E-01  1.27245697E-01 -9.38038552E-02  5.16910527E-01
  4.78169283E-32  1.33382484E-16  9.69842525E-01
Total CI Density                           R   N=          78
  2.06513881E+00 -2.03300849E-01  7.76817664E-01  7.21228853E-34  0.00000000E+00
  1.30590274E+00 -2.50373975E-18  2.22064623E-17  1.94133738E-31  6.01502372E-01
  2.76400331E-02 -9.36750102E-02  2.81679619E-32  2.07223392E-17  4.19890953E-01
 -1.21128286E-01  3.13441079E-01 -1.23259516E-31 -4.33244537E-01 -2.30541175E-01
  5.78901723E-01 -1.21128286E-01  3.13441079E-01  9.70668692E-32  4.33244537E-01
 -2.30541175E-01 -1.46682355E-01  5.78901723E-01  9.35440577E-03 -3.11364263E-04
 -1.56887079E-33  8.23440009E-19 -3.97918541E-02  1.13666954E-02  1.13666954E-02
  2.11184675E+00 -6.80219813E-03 -1.36989501E-01 -1.42987512E-33 -9.81346130E-18
  4.25905445E-02 -4.16995996E-02 -4.16995996E-02 -4.70906086E-01  2.04229992E+00
  6.77436289E-33  0.00000000E+00  2.24487533E-01  5.85482703E-32  5.75720730E-32
  8.01186857E-32 -6.47112461E-32 -4.62488713E-33  0.00000000E+00  1.63146573E+00
  1.86727708E-17 -4.50286071E-17  7.08742220E-32  1.84906856E-01 -2.97991292E-17
  6.95469364E-02 -6.95469364E-02 -1.51847846E-17  7.16961641E-17  5.36178897E-31
  9.95057631E-01  1.34397941E-01 -3.81809128E-01 -2.99237740E-32 -2.90334427E-18
 -5.79469986E-01  1.39615241E-01  1.39615241E-01 -8.38067154E-02  4.66969002E-01
  4.78169283E-32  1.67312317E-16  1.14783478E+00
Number of excited states                   I                2
Excited state NLR                          I                1
Number of ex state dens                    I                2
Number of g2e trans dens                   I                2
Number of e2e trans dens                   I                0
Excited state spins                        I   N=           2
           0           0
Excited state densities                    R   N=         312
  1.03557142E+00 -1.14965276E-01  4.39299217E-01  3.60614427E-34  0.00000000E+00
  7.15376393E-01 -7.43440019E-19  3.17269498E-18  9.70668692E-32  3.12176448E-01
  7.31412951E-03 -1.71630409E-02  1.40839809E-32  9.00932253E-18  2.85657070E-01
 -5.61178392E-02  1.43774698E-01 -6.16297582E-32 -2.17626914E-01 -1.26688469E-01
  2.72483789E-01 -5.61178392E-02  1.43774698E-01  4.85334346E-32  2.17626914E-01
 -1.26688469E-01 -7.47267432E-02  2.72483789E-01  4.03331671E-03  1.81817961E-03
 -7.84435397E-34  3.18200440E-19 -1.59102400E-02  4.43167276E-03  4.43167276E-03
  1.05597215E+00  2.12824735E-03 -8.91094679E-02 -7.14937562E-34 -3.70595116E-18
 -1.45006565E-02 -1.15426916E-02 -1.15426916E-02 -2.36784140E-01  1.03682323E+00
  3.38718145E-33  0.00000000E+00  1.16940633E-01  2.92741352E-32  2.87860365E-32
  4.00593428E-32 -3.23556231E-32 -2.31244357E-33  0.00000000E+00  7.51675856E-01
  1.25311377E-17 -4.03482377E-17  3.54371110E-32  8.66544940E-02 -3.16466464E-17
  3.25013059E-02 -3.25013059E-02 -9.71328809E-18  4.98884651E-17  2.68089448E-31
  4.99489748E-01  6.87002015E-02 -2.15301488E-01 -1.49618870E-32 -8.05492685E-18
 -3.03463121E-01  6.36228486E-02  6.36228486E-02 -4.69019276E-02  2.58455263E-01
  2.39084641E-32  6.66912422E-17  4.84921262E-01  1.03557142E+00 -1.14965276E-01
  4.39299217E-01  3.60614427E-34  0.00000000E+00  7.15376393E-01 -7.43440019E-19
  3.17269498E-18  9.70668692E-32  3.12176448E-01  7.31412951E-03 -1.71630409E-02
  1.40839809E-32  9.00932253E-18  2.85657070E-01 -5.61178392E-02  1.43774698E-01
 -6.16297582E-32 -2.17626914E-01 -1.26688469E-01  2.72483789E-01 -5.61178392E-02
  1.43774698E-01  4.85334346E-32  2.17626914E-01 -1.26688469E-01 -7.47267432E-02
  2.72483789E-01  4.03331671E-03  1.81817961E-03 -7.84435397E-34  3.18200440E-19
 -1.59102400E-02  4.43167276E-03  4.43167276E-03  1.05597215E+00  2.12824735E-03
 -8.91094679E-02 -7.14937562E-34 -3.70595116E-18 -1.45006565E-02 -1.15426916E-02
 -1.15426916E-02 -2.36784140E-01  1.03682323E+00  3.38718145E-33  0.00000000E+00
  1.16940633E-01  2.92741352E-32  2.87860365E-32  4.00593428E-32 -3.23556231E-32
 -2.31244357E-33  0.00000000E+00  7.51675856E-01  1.25311377E-17 -4.03482377E-17
  3.54371110E-32  8.66544940E-02 -3.16466464E-17  3.25013059E-02 -3.25013059E-02
 -9.71328809E-18  4.98884651E-17  2.68089448E-31  4.99489748E-01  6.87002015E-02
 -2.15301488E-01 -1.49618870E-32 -8.05492685E-18 -3.03463121E-01  6.36228486E-02
  6.36228486E-02 -4.69019276E-02  2.58455263E-01  2.39084641E-32  6.66912422E-17
  4.84921262E-01  1.03444700E+00 -1.11242020E-01  4.27700870E-01  3.60614427E-34
  0.00000000E+00  7.13414705E-01  1.75011760E-17 -5.85253838E-17  9.70668692E-32
  3.12345684E-01  1.83570479E-02 -5.44385322E-02  1.40839809E-32 -1.62089234E-16
  1.77751027E-01 -5.98666369E-02  1.57076359E-01 -6.16297582E-32 -2.25798830E-01
 -9.06718347E-02  2.88349939E-01 -5.98666369E-02  1.57076359E-01  4.85334346E-32
  2.25798830E-01 -9.06718347E-02 -1.13476842E-01  2.88349939E-01  5.75083063E-03
 -4.07859435E-03 -7.84435397E-34 -2.68147424E-17 -3.25526927E-02  9.89405107E-03
  9.89405107E-03  1.05340590E+00 -7.37523807E-03 -5.67655128E-02 -7.14937562E-34
  1.46111978E-16  7.79271177E-02 -4.21407545E-02 -4.21407545E-02 -2.22511927E-01
  9.57533083E-01  3.38718145E-33  0.00000000E+00  1.13683792E-01  2.92741352E-32
  2.87860365E-32  4.00593428E-32 -3.23556231E-32 -2.31244357E-33  0.00000000E+00
  7.49172793E-01  8.41849188E-18 -3.02974611E-17  3.54371110E-32  5.83047865E-02
 -7.17415144E-17  1.48215569E-01 -1.48215569E-01 -1.10309611E-17  6.17470444E-17
  2.68089448E-31  9.72623859E-01  5.05936679E-02 -1.48591430E-01 -1.49618870E-32
  2.65531411E-16 -1.32063129E-01  1.14196978E-02  1.14196978E-02 -2.12036206E-02
  1.13567143E-01  2.39084641E-32  1.01183155E-16  2.55712263E-01  1.03444700E+00
 -1.11242020E-01  4.27700870E-01  3.60614427E-34  0.00000000E+00  7.13414705E-01
  1.75011760E-17 -5.85253838E-17  9.70668692E-32  3.12345684E-01  1.83570479E-02
 -5.44385322E-02  1.40839809E-32 -1.62089234E-16  1.77751027E-01 -5.98666369E-02
  1.57076359E-01 -6.16297582E-32 -2.25798830E-01 -9.06718347E-02  2.88349939E-01
 -5.98666369E-02  1.57076359E-01  4.85334346E-32  2.25798830E-01 -9.06718347E-02
 -1.13476842E-01  2.88349939E-01  5.75083063E-03 -4.07859435E-03 -7.84435397E-34
 -2.68147424E-17 -3.25526927E-02  9.89405107E-03  9.89405107E-03  1.05340590E+00
 -7.37523807E-03 -5.67655128E-02 -7.14937562E-34  1.46111978E-16  7.79271177E-02
 -4.21407545E-02 -4.21407545E-02 -2.22511927E-01  9.57533083E-01  3.38718145E-33
  0.00000000E+00  1.13683792E-01  2.92741352E-32  2.87860365E-32  4.00593428E-32
 -3.23556231E-32 -2.31244357E-33  0.00000000E+00  7.49172793E-01  8.41849188E-18
 -3.02974611E-17  3.54371110E-32  5.83047865E-02 -7.17415144E-17  1.48215569E-01
 -1.48215569E-01 -1.10309611E-17  6.17470444E-17  2.68089448E-31  9.72623859E-01
  5.05936679E-02 -1.48591430E-01 -1.49618870E-32  2.65531411E-16 -1.32063129E-01
  1.14196978E-02  1.14196978E-02 -2.12036206E-02  1.13567143E-01  2.39084641E-32
  1.01183155E-16  2.55712263E-01
G to E trans densities                     R   N=         576
  0.00000000E+00  0.00000000E+00 -2.18438258E-17  0.00000000E+00  0.00000000E+00
  0.00000000E+00  0.00000000E+00  0.00000000E+00  0.00000000E+00  1.14676973E-17
  0.00000000E+00  0.00000000E+00  0.00000000E+00  0.00000000E+00  8.27922504E-17
  0.00000000E+00  0.00000000E+00  0.00000000E+00  0.00000000E+00  0.00000000E+00
  0.00000000E+00 -2.33538996E-17  0.00000000E+00  0.00000000E+00  1.63465289E-17
 -6.64065019E-17  0.00000000E+00 -3.56424748E-03 -2.79811849E-17 -1.89618575E-02
  1.89618575E-02 -1.03308205E-17  5.47733682E-17  0.00000000E+00 -6.75551858E-02
  2.08142750E-17  0.00000000E+00  0.00000000E+00 -1.26861580E-02  0.00000000E+00
  0.00000000E+00  0.00000000E+00  0.00000000E+00  0.00000000E+00  0.00000000E+00
  8.22042166E-02  0.00000000E+00  0.00000000E+00  0.00000000E+00  0.00000000E+00
  5.57316538E-17  0.00000000E+00  0.00000000E+00  0.00000000E+00  0.00000000E+00
  0.00000000E+00  0.00000000E+00 -2.26534798E-17  0.00000000E+00  0.00000000E+00
  0.00000000E+00  0.00000000E+00  2.15287534E-01  0.00000000E+00  0.00000000E+00
  0.00000000E+00  0.00000000E+00  0.00000000E+00  0.00000000E+00 -1.50308606E-01
  0.00000000E+00  0.00000000E+00  0.00000000E+00  0.00000000E+00 -2.15287534E-01
  0.00000000E+00  0.00000000E+00  0.00000000E+00  0.00000000E+00  0.00000000E+00
  0.00000000E+00  1.50308606E-01  0.00000000E+00  0.00000000E+00  0.00000000E+00
  0.00000000E+00  1.60428172E-17  0.00000000E+00  0.00000000E+00  0.00000000E+00
  0.00000000E+00  0.00000000E+00  0.00000000E+00 -1.04640828E-17  0.00000000E+00
  0.00000000E+00  0.00000000E+00  0.00000000E+00 -8.52779510E-17  0.00000000E+00
  0.00000000E+00  0.00000000E+00  0.00000000E+00  0.00000000E+00  0.00000000E+00
  4.96032305E-17  0.00000000E+00  0.00000000E+00 -5.06057972E-18  1.78322417E-19
  0.00000000E+00 -7.56102066E-03 -7.06165083E-19  9.73117068E-03 -9.73117068E-03
  4.96303187E-18 -2.02036683E-17  0.00000000E+00  6.58772530E-02 -6.08993924E-17
  0.00000000E+00  0.00000000E+00  7.68993091E-01  0.00000000E+00  0.00000000E+00
  0.00000000E+00  0.00000000E+00  0.00000000E+00  0.00000000E+00 -7.38328420E-01
  0.00000000E+00  0.00000000E+00  0.00000000E+00  0.00000000E+00 -6.59622950E-17
  0.00000000E+00  0.00000000E+00  0.00000000E+00  0.00000000E+00  0.00000000E+00
  0.00000000E+00  1.02078893E-16  0.00000000E+00  0.00000000E+00  0.00000000E+00
  0.00000000E+00 -2.18438258E-17  0.00000000E+00  0.00000000E+00  0.00000000E+00
  0.00000000E+00  0.00000000E+00  0.00000000E+00  1.14676973E-17  0.00000000E+00
  0.00000000E+00  0.00000000E+00  0.00000000E+00  8.27922504E-17  0.00000000E+00
  0.00000000E+00  0.00000000E+00  0.00000000E+00  0.00000000E+00  0.00000000E+00
 -2.33538996E-17  0.00000000E+00  0.00000000E+00  1.63465289E-17 -6.64065019E-17
  0.00000000E+00 -3.56424748E-03 -2.79811849E-17 -1.89618575E-02  1.89618575E-02
 -1.03308205E-17  5.47733682E-17  0.00000000E+00 -6.75551858E-02  2.08142750E-17
  0.00000000E+00  0.00000000E+00 -1.26861580E-02  0.00000000E+00  0.00000000E+00
  0.00000000E+00  0.00000000E+00  0.00000000E+00  0.00000000E+00  8.22042166E-02
  0.00000000E+00  0.00000000E+00  0.00000000E+00  0.00000000E+00  5.57316538E-17
  0.00000000E+00  0.00000000E+00  0.00000000E+00  0.00000000E+00  0.00000000E+00
  0.00000000E+00 -2.26534798E-17  0.00000000E+00  0.00000000E+00  0.00000000E+00